Starting Cobalt job script
/soft/applications/vasp/vasp6-dev/bin/vasp_std
 ----------------------------------------------------
    OOO  PPPP  EEEEE N   N M   M PPPP
   O   O P   P E     NN  N MM MM P   P
   O   O PPPP  EEEEE N N N M M M PPPP   -- VERSION
   O   O P     E     N  NN M   M P
    OOO  P     EEEEE N   N M   M P
 ----------------------------------------------------
 running   16 mpi-ranks, with    8 threads/rank
 distrk:  each k-point on   16 cores,    1 groups
 distr:  one band on    1 cores,   16 groups
 using from now: INCAR     
 vasp.5.4.4 18Apr17 (build Sep 25 2018 18:50:45) complex                        
  
 POSCAR found :  2 types and       3 ions
 scaLAPACK will be used
 LDA part: xc-table for Pade appr. of Perdew
 POSCAR, INCAR and KPOINTS ok, starting setup
 FFT: planning ...
 WAVECAR not read
 entering main loop
       N       E                     dE             d eps       ncg     rms          rms(c)
DAV:   1     0.108838470868E+03    0.10884E+03   -0.31444E+03    32   0.379E+02
DAV:   2    -0.613774164215E+01   -0.11498E+03   -0.11493E+03    64   0.102E+02
DAV:   3    -0.102145351952E+02   -0.40768E+01   -0.40768E+01    32   0.340E+01
DAV:   4    -0.102433346135E+02   -0.28799E-01   -0.28799E-01    48   0.310E+00
DAV:   5    -0.102433595248E+02   -0.24911E-04   -0.24912E-04    64   0.713E-02    0.695E+00
DAV:   6    -0.967792154863E+01    0.56544E+00   -0.77736E-01    32   0.456E+00    0.363E+00
DAV:   7    -0.956783301537E+01    0.11009E+00   -0.30142E-01    48   0.283E+00    0.984E-01
DAV:   8    -0.956436285123E+01    0.34702E-02   -0.25559E-02    48   0.110E+00    0.107E-01
DAV:   9    -0.956572621439E+01   -0.13634E-02   -0.33123E-03    64   0.276E-01    0.762E-02
DAV:  10    -0.956716224283E+01   -0.14360E-02   -0.55874E-04    64   0.140E-01    0.311E-02
DAV:  11    -0.956942239009E+01   -0.22601E-02   -0.44691E-04    48   0.792E-02    0.148E-02
DAV:  12    -0.957038131391E+01   -0.95892E-03   -0.11089E-04    48   0.395E-02    0.921E-03
DAV:  13    -0.957079538389E+01   -0.41407E-03   -0.45845E-05    48   0.251E-02    0.326E-03
DAV:  14    -0.957098372406E+01   -0.18834E-03   -0.16285E-05    32   0.140E-02    0.106E-03
DAV:  15    -0.957099998985E+01   -0.16266E-04   -0.66097E-07    32   0.309E-03
   1 F= -.95710000E+01 E0= -.95427389E+01  d E =-.957100E+01
 BRION: g(F)=  0.573E+01 g(S)=  0.000E+00
 bond charge predicted
       N       E                     dE             d eps       ncg     rms          rms(c)
DAV:   1    -0.684185793173E+01    0.27291E+01   -0.13105E+03    32   0.216E+02    0.103E+01
DAV:   2    -0.937550279602E+01   -0.25336E+01   -0.36872E+01    64   0.359E+01    0.535E+00
DAV:   3    -0.927594783606E+01    0.99555E-01   -0.37457E-01    32   0.297E+00    0.316E+00
DAV:   4    -0.937072423585E+01   -0.94776E-01   -0.32366E-01    32   0.281E+00    0.698E-01
DAV:   5    -0.936879733833E+01    0.19269E-02   -0.31111E-02    32   0.944E-01    0.194E-01
DAV:   6    -0.937021150236E+01   -0.14142E-02   -0.52767E-03    32   0.376E-01    0.716E-02
DAV:   7    -0.937071690990E+01   -0.50541E-03   -0.58038E-04    32   0.125E-01    0.149E-02
DAV:   8    -0.937098762110E+01   -0.27071E-03   -0.30749E-05    32   0.248E-02    0.968E-03
DAV:   9    -0.937131128635E+01   -0.32367E-03   -0.91264E-05    32   0.344E-02    0.682E-03
DAV:  10    -0.937141788717E+01   -0.10660E-03   -0.20553E-05    32   0.168E-02    0.278E-03
DAV:  11    -0.937143956207E+01   -0.21675E-04   -0.22898E-06    32   0.547E-03
   2 F= -.93714396E+01 E0= -.93401641E+01  d E =0.199560E+00
 BRION: g(F)=  0.258E+01 g(S)=  0.000E+00 retain N=  1 mean eig= 0.61
 eig:   0.611
 bond charge predicted
       N       E                     dE             d eps       ncg     rms          rms(c)
DAV:   1    -0.105652941008E+02   -0.11939E+01   -0.25533E+02    32   0.999E+01    0.367E+00
DAV:   2    -0.108041433966E+02   -0.23885E+00   -0.28225E+00    32   0.118E+01    0.233E+00
DAV:   3    -0.107795012806E+02    0.24642E-01   -0.17165E-01    48   0.224E+00    0.932E-01
DAV:   4    -0.107914049397E+02   -0.11904E-01   -0.26269E-02    48   0.891E-01    0.345E-01
DAV:   5    -0.107905653577E+02    0.83958E-03   -0.12346E-02    48   0.535E-01    0.427E-02
DAV:   6    -0.107907385012E+02   -0.17314E-03   -0.94538E-05    48   0.580E-02    0.166E-02
DAV:   7    -0.107909111771E+02   -0.17268E-03   -0.19638E-05    32   0.217E-02    0.512E-03
DAV:   8    -0.107911157745E+02   -0.20460E-03   -0.21584E-05    32   0.171E-02    0.340E-03
DAV:   9    -0.107911827076E+02   -0.66933E-04   -0.42394E-06    32   0.720E-03
   3 F= -.10791183E+02 E0= -.10762658E+02  d E =-.141974E+01
 BRION: g(F)=  0.139E+01 g(S)=  0.000E+00 retain N=  2 mean eig=83.91
 eig:   0.614167.207
 bond charge predicted
       N       E                     dE             d eps       ncg     rms          rms(c)
DAV:   1     0.512313815693E+02    0.62022E+02   -0.46477E+03    32   0.287E+02    0.302E+01
DAV:   2    -0.151997734213E+02   -0.66431E+02   -0.99987E+02    48   0.129E+02    0.218E+01
DAV:   3    -0.122015129978E+02    0.29983E+01   -0.88106E+01    32   0.326E+01    0.179E+01
DAV:   4    -0.834339202910E+01    0.38581E+01   -0.65912E+00    32   0.111E+01    0.151E+01
DAV:   5    -0.304863425689E+01    0.52948E+01   -0.58215E+01    48   0.231E+01    0.149E+01
DAV:   6    -0.229438921951E+01    0.75425E+00   -0.34288E-01    32   0.246E+00    0.119E+01
DAV:   7    -0.151090990031E+01    0.78348E+00   -0.11339E+01    48   0.602E+00    0.322E+00
DAV:   8    -0.183199647274E+01   -0.32109E+00   -0.17728E-01    32   0.145E+00    0.269E+00
DAV:   9    -0.188086486137E+01   -0.48868E-01   -0.44116E-02    32   0.968E-01    0.287E+00
DAV:  10    -0.179294163814E+01    0.87923E-01   -0.16055E+00    48   0.147E+00    0.163E+00
DAV:  11    -0.180595748487E+01   -0.13016E-01   -0.95377E-03    32   0.479E-01    0.138E+00
DAV:  12    -0.180412530943E+01    0.18322E-02   -0.34075E-01    64   0.696E-01    0.910E-01
DAV:  13    -0.180297249825E+01    0.11528E-02   -0.15716E-02    64   0.286E-01    0.355E-01
DAV:  14    -0.297689754825E+01   -0.11739E+01   -0.11519E+01    32   0.249E-01    0.993E+00
DAV:  15    -0.263410242743E+01    0.34280E+00   -0.50257E-01    32   0.324E+00    0.971E+00
DAV:  16    -0.245954499383E+01    0.17456E+00   -0.16510E-02    32   0.687E-01    0.969E+00
DAV:  17    -0.242064244143E+01    0.38903E-01   -0.72548E-04    32   0.150E-01    0.969E+00
DAV:  18    -0.241492308416E+01    0.57194E-02   -0.47200E-04    32   0.715E-02    0.970E+00
DAV:  19    -0.244926320187E+01   -0.34340E-01   -0.33995E-03    32   0.262E-01    0.974E+00
DAV:  20    -0.246820317016E+01   -0.18940E-01   -0.69061E-04    32   0.134E-01    0.975E+00
DAV:  21    -0.243926256245E+01    0.28941E-01   -0.65961E-04    32   0.188E-01    0.973E+00
DAV:  22    -0.235609055300E+01    0.83172E-01   -0.18299E-02    32   0.663E-01    0.967E+00
DAV:  23    -0.231740190433E+01    0.38689E-01   -0.79809E-03    48   0.438E-01    0.969E+00
DAV:  24    -0.231401746114E+01    0.33844E-02   -0.60947E-04    32   0.116E-01    0.972E+00
DAV:  25    -0.232300055939E+01   -0.89831E-02   -0.20804E-03    32   0.218E-01    0.966E+00
DAV:  26    -0.231799901882E+01    0.50015E-02   -0.13343E-02    32   0.390E-01    0.955E+00
DAV:  27    -0.230152718819E+01    0.16472E-01   -0.88153E-03    32   0.454E-01    0.934E+00
DAV:  28    -0.225548170804E+01    0.46045E-01   -0.52847E-02    32   0.103E+00    0.891E+00
DAV:  29    -0.220631186672E+01    0.49170E-01   -0.50069E-02    32   0.997E-01    0.851E+00
DAV:  30    -0.216085232644E+01    0.45460E-01   -0.32248E-02    32   0.732E-01    0.822E+00
DAV:  31    -0.212128531017E+01    0.39567E-01   -0.92292E-03    32   0.412E-01    0.798E+00
DAV:  32    -0.207278245131E+01    0.48503E-01   -0.31360E-03    32   0.291E-01    0.764E+00
DAV:  33    -0.202369875442E+01    0.49084E-01   -0.46823E-03    32   0.348E-01    0.698E+00
DAV:  34    -0.202756339403E+01   -0.38646E-02   -0.30646E-02    32   0.103E+00    0.578E+00
DAV:  35    -0.200468276784E+01    0.22881E-01   -0.19342E-01    32   0.183E+00    0.178E+00
DAV:  36    -0.213811394784E+01   -0.13343E+00   -0.70761E-02    32   0.109E+00    0.347E+00
DAV:  37    -0.209899721905E+01    0.39117E-01   -0.22069E-01    32   0.508E-01    0.994E-01
DAV:  38    -0.218125140439E+01   -0.82254E-01   -0.13511E-01    32   0.814E-01    0.264E+00
DAV:  39    -0.212852670111E+01    0.52725E-01   -0.94672E-02    32   0.586E-01    0.544E-01
DAV:  40    -0.216785703528E+01   -0.39330E-01   -0.29127E-03    32   0.470E-01    0.109E+00
DAV:  41    -0.215808928799E+01    0.97677E-02   -0.54048E-04    32   0.175E-01    0.428E-01
DAV:  42    -0.216639201779E+01   -0.83027E-02   -0.46400E-04    32   0.137E-01    0.354E-01
DAV:  43    -0.216775105133E+01   -0.13590E-02   -0.44473E-04    32   0.852E-02    0.136E-01
DAV:  44    -0.217019082181E+01   -0.24398E-02   -0.95883E-05    32   0.700E-02    0.371E-02
DAV:  45    -0.217093588904E+01   -0.74507E-03   -0.22187E-05    32   0.468E-02    0.508E-02
DAV:  46    -0.217093329124E+01    0.25978E-05   -0.27574E-07    48   0.304E-03
   4 F= -.21709333E+01 E0= -.20858628E+01  d E =0.862025E+01
 BRION: g(F)=  0.546E-01 g(S)=  0.000E+00 retain N=  2 mean eig=18.97
 eig:   1.915 36.031
 bond charge predicted
       N       E                     dE             d eps       ncg     rms          rms(c)
DAV:   1    -0.165085342812E+01    0.52008E+00   -0.45565E+02    32   0.132E+02    0.474E+00
DAV:   2    -0.258773460260E+01   -0.93688E+00   -0.12909E+01    32   0.179E+01    0.560E+00
DAV:   3    -0.220332618912E+01    0.38441E+00   -0.23191E+00    32   0.271E+00    0.498E+00
DAV:   4    -0.230277117639E+01   -0.99445E-01   -0.34507E+00    32   0.119E+00    0.383E+00
DAV:   5    -0.219779658136E+01    0.10497E+00   -0.12299E-01    32   0.801E-01    0.266E+00
DAV:   6    -0.226734286968E+01   -0.69546E-01   -0.15154E+00    32   0.966E-01    0.627E+00
DAV:   7    -0.218655390793E+01    0.80789E-01   -0.13004E+00    32   0.105E+00    0.186E+00
DAV:   8    -0.220380308345E+01   -0.17249E-01   -0.30564E-03    32   0.509E-01    0.174E+00
DAV:   9    -0.219502537328E+01    0.87777E-02   -0.51696E-03    32   0.102E-01    0.716E-01
DAV:  10    -0.219591965780E+01   -0.89428E-03   -0.13725E-03    32   0.813E-02    0.318E-01
DAV:  11    -0.219721138278E+01   -0.12917E-02   -0.41535E-04    32   0.667E-02    0.515E-02
DAV:  12    -0.219769208506E+01   -0.48070E-03   -0.13024E-04    32   0.510E-02    0.142E-01
DAV:  13    -0.219776893132E+01   -0.76846E-04   -0.15278E-04    32   0.306E-02
   5 F= -.21977689E+01 E0= -.21063213E+01  d E =-.268356E-01
 BRION: g(F)=  0.196E+00 g(S)=  0.000E+00 retain N=  2 mean eig=*****
 eig:  11.064204.916
 bond charge predicted
       N       E                     dE             d eps       ncg     rms          rms(c)
DAV:   1     0.416553081165E+01    0.63632E+01   -0.22652E+03    32   0.270E+02    0.800E+00
DAV:   2    -0.415431909337E+01   -0.83198E+01   -0.94337E+01    32   0.534E+01    0.111E+01
DAV:   3    -0.301995927305E+01    0.11344E+01   -0.31161E+00    32   0.687E+00    0.663E+00
DAV:   4    -0.293482289638E+01    0.85136E-01   -0.25121E-01    32   0.162E+00    0.503E+00
DAV:   5    -0.285607260141E+01    0.78750E-01   -0.47508E-01    32   0.256E+00    0.253E+00
DAV:   6    -0.291137187403E+01   -0.55299E-01   -0.61454E-02    32   0.965E-01    0.249E+00
DAV:   7    -0.287545524476E+01    0.35917E-01   -0.28125E-01    48   0.257E+00    0.659E-01
DAV:   8    -0.290452863550E+01   -0.29073E-01   -0.84778E-02    32   0.795E-01    0.726E-01
DAV:   9    -0.290426961874E+01    0.25902E-03   -0.15799E-02    48   0.482E-01    0.213E-01
DAV:  10    -0.290745592866E+01   -0.31863E-02   -0.26737E-03    32   0.168E-01    0.326E-01
DAV:  11    -0.290696037995E+01    0.49555E-03   -0.74998E-03    32   0.190E-01    0.218E-01
DAV:  12    -0.290908211718E+01   -0.21217E-02   -0.22678E-03    32   0.145E-01    0.144E-01
DAV:  13    -0.290952030042E+01   -0.43818E-03   -0.35402E-04    32   0.757E-02    0.276E-02
DAV:  14    -0.290990407291E+01   -0.38377E-03   -0.44116E-05    32   0.360E-02    0.633E-03
DAV:  15    -0.290996657371E+01   -0.62501E-04   -0.75984E-06    32   0.897E-03
   6 F= -.29099666E+01 E0= -.27986957E+01  d E =-.712198E+00
 BRION: g(F)=  0.245E+00 g(S)=  0.000E+00 retain N=  1 mean eig= 3.51
 eig:   3.515
 bond charge predicted
       N       E                     dE             d eps       ncg     rms          rms(c)
DAV:   1    -0.796181531319E+00    0.21137E+01   -0.81565E+02    32   0.176E+02    0.683E+00
DAV:   2    -0.249396738262E+01   -0.16978E+01   -0.22740E+01    32   0.261E+01    0.751E+00
DAV:   3    -0.215998989020E+01    0.33398E+00   -0.16233E+00    32   0.396E+00    0.199E+00
DAV:   4    -0.223039747812E+01   -0.70408E-01   -0.12965E-01    32   0.101E+00    0.134E+00
DAV:   5    -0.224376437258E+01   -0.13367E-01   -0.13539E-02    32   0.543E-01    0.926E-01
DAV:   6    -0.224381519318E+01   -0.50821E-04   -0.93020E-03    48   0.408E-01    0.640E-01
DAV:   7    -0.224363626394E+01    0.17893E-03   -0.19758E-02    48   0.732E-01    0.207E-01
DAV:   8    -0.224604367914E+01   -0.24074E-02   -0.94579E-04    32   0.208E-01    0.118E-01
DAV:   9    -0.224621195604E+01   -0.16828E-03   -0.97736E-04    48   0.983E-02    0.896E-02
DAV:  10    -0.224641874677E+01   -0.20679E-03   -0.67304E-04    32   0.889E-02    0.314E-02
DAV:  11    -0.224682320986E+01   -0.40446E-03   -0.26120E-04    32   0.429E-02    0.960E-02
DAV:  12    -0.224691538525E+01   -0.92175E-04   -0.56836E-04    32   0.466E-02
   7 F= -.22469154E+01 E0= -.21572575E+01  d E =0.663051E+00
 BRION: g(F)=  0.829E-01 g(S)=  0.000E+00 retain N=  2 mean eig=*****
 eig:   3.372513.108
 bond charge predicted
       N       E                     dE             d eps       ncg     rms          rms(c)
DAV:   1    -0.771949951666E+00    0.14749E+01   -0.94658E+02    32   0.187E+02    0.765E+00
DAV:   2    -0.542566867731E+01   -0.46537E+01   -0.70213E+01    32   0.312E+01    0.994E+00
DAV:   3    -0.323047535852E+01    0.21952E+01   -0.17223E+00    32   0.573E+00    0.691E+00
DAV:   4    -0.251638652831E+01    0.71409E+00   -0.60487E-01    32   0.206E+00    0.539E+00
DAV:   5    -0.288797919002E+01   -0.37159E+00   -0.81528E+00    32   0.175E+00    0.926E+00
DAV:   6    -0.398605401005E+01   -0.10981E+01   -0.32363E-01    32   0.398E+00    0.102E+01
DAV:   7    -0.264244583514E+01    0.13436E+01   -0.15998E-01    32   0.248E+00    0.919E+00
DAV:   8    -0.246875334596E+01    0.17369E+00   -0.59407E+00    32   0.188E+00    0.440E+00
DAV:   9    -0.240796826031E+01    0.60785E-01   -0.11347E-01    32   0.116E+00    0.237E+00
DAV:  10    -0.244327020771E+01   -0.35302E-01   -0.84514E-02    32   0.278E-01    0.374E+00
DAV:  11    -0.240425460645E+01    0.39016E-01   -0.26086E-02    32   0.271E-01    0.290E+00
DAV:  12    -0.245988115063E+01   -0.55627E-01   -0.10854E+00    32   0.464E-01    0.611E+00
DAV:  13    -0.238500328437E+01    0.74878E-01   -0.39579E-01    32   0.102E+00    0.695E-01
DAV:  14    -0.240555463276E+01   -0.20551E-01   -0.17737E-03    32   0.351E-01    0.178E-01
DAV:  15    -0.241374416598E+01   -0.81895E-02   -0.25577E-03    32   0.129E-01    0.175E+00
DAV:  16    -0.240488136997E+01    0.88628E-02   -0.28027E-03    32   0.170E-01    0.115E-01
DAV:  17    -0.240903026623E+01   -0.41489E-02   -0.44853E-04    48   0.147E-01    0.379E-01
DAV:  18    -0.240904752231E+01   -0.17256E-04   -0.24068E-04    32   0.807E-02
   8 F= -.24090475E+01 E0= -.23233367E+01  d E =-.162132E+00
 BRION: g(F)=  0.547E+00 g(S)=  0.000E+00 retain N=  2 mean eig=36.04
 eig:  10.974 61.103
 bond charge predicted
       N       E                     dE             d eps       ncg     rms          rms(c)
DAV:   1    -0.242505764295E+01   -0.16027E-01   -0.21288E-01    32   0.285E+00    0.195E-01
DAV:   2    -0.244786245245E+01   -0.22805E-01   -0.18618E-02    32   0.382E-01    0.300E+00
DAV:   3    -0.241715626516E+01    0.30706E-01   -0.16787E-02    32   0.312E-01    0.170E-01
DAV:   4    -0.242461114535E+01   -0.74549E-02   -0.40767E-04    32   0.192E-01    0.500E-02
DAV:   5    -0.242518333555E+01   -0.57219E-03   -0.37137E-05    32   0.523E-02    0.277E-02
DAV:   6    -0.242521262118E+01   -0.29286E-04   -0.53670E-06    32   0.162E-02
   9 F= -.24252126E+01 E0= -.23400818E+01  d E =-.161651E-01
 BRION: g(F)=  0.571E+00 g(S)=  0.000E+00 retain N=  1 mean eig= 1.34
 eig:   1.336
 bond charge predicted
       N       E                     dE             d eps       ncg     rms          rms(c)
DAV:   1    -0.160285172341E+01    0.82233E+00   -0.46635E+02    32   0.132E+02    0.579E+00
DAV:   2    -0.243323780158E+01   -0.83039E+00   -0.12690E+01    32   0.140E+01    0.863E+00
DAV:   3    -0.221782353370E+01    0.21541E+00   -0.11464E+01    32   0.398E+00    0.591E+00
DAV:   4    -0.196819848813E+01    0.24963E+00   -0.41390E-01    32   0.152E+00    0.278E+00
DAV:   5    -0.202985221978E+01   -0.61654E-01   -0.52878E-01    48   0.159E+00    0.217E+00
DAV:   6    -0.204970776774E+01   -0.19856E-01   -0.37850E-02    32   0.773E-01    0.696E-01
DAV:   7    -0.206385894382E+01   -0.14151E-01   -0.94245E-02    32   0.500E-01    0.126E+00
DAV:   8    -0.205965045501E+01    0.42085E-02   -0.15223E-03    32   0.331E-01    0.126E+00
DAV:   9    -0.205567630994E+01    0.39741E-02   -0.93930E-05    32   0.484E-02    0.121E+00
DAV:  10    -0.205701690066E+01   -0.13406E-02   -0.15314E-01    32   0.371E-01    0.128E+00
DAV:  11    -0.205150317125E+01    0.55137E-02   -0.16152E-02    32   0.384E-01    0.485E-01
DAV:  12    -0.205506998397E+01   -0.35668E-02   -0.17321E-03    32   0.103E-01    0.252E-01
DAV:  13    -0.205756913277E+01   -0.24991E-02   -0.36756E-04    32   0.101E-01    0.145E-01
DAV:  14    -0.205820873094E+01   -0.63960E-03   -0.59156E-04    32   0.505E-02    0.205E-01
DAV:  15    -0.205821543557E+01   -0.67046E-05   -0.34828E-04    32   0.505E-02
  10 F= -.20582154E+01 E0= -.19774060E+01  d E =0.366997E+00
 BRION: g(F)=  0.169E-02 g(S)=  0.000E+00 retain N=  1 mean eig= 1.26
 eig:   1.259
 writing wavefunctions
Application 9860429 resources: utime ~11894s, stime ~11628s, Rss ~67324, inblocks ~0, outblocks ~34552
