 vasp.5.4.4 18Apr17 (build Sep 25 2018 18:50:45) complex                        
  
 executed on           IFC17_impi date 2018.12.04  04:15:25
 running   16 mpi-ranks, with    8 threads/rank
 distrk:  each k-point on   16 cores,    1 groups
 distr:  one band on NCORES_PER_BAND=   1 cores,   16 groups


--------------------------------------------------------------------------------------------------------


 INCAR:
 POTCAR:    PAW_PBE H 15Jun2001                   
 POTCAR:    PAW_PBE O 08Apr2002                   
 POTCAR:    PAW_PBE H 15Jun2001                   
   VRHFIN =H: ultrasoft test                                                    
   LEXCH  = PE                                                                  
   EATOM  =    12.4884 eV,    0.9179 Ry                                         
                                                                                
   TITEL  = PAW_PBE H 15Jun2001                                                 
   LULTRA =        F    use ultrasoft PP ?                                      
   IUNSCR =        0    unscreen: 0-lin 1-nonlin 2-no                           
   RPACOR =    0.000    partial core radius                                     
   POMASS =    1.000; ZVAL   =    1.000    mass and valenz                      
   RCORE  =    1.100    outmost cutoff radius                                   
   RWIGS  =    0.700; RWIGS  =    0.370    wigner-seitz radius (au A)           
   ENMAX  =  250.000; ENMIN  =  200.000 eV                                      
   RCLOC  =    0.701    cutoff for local pot                                    
   LCOR   =        T    correct aug charges                                     
   LPAW   =        T    paw PP                                                  
   EAUG   =  400.000                                                            
   RMAX   =    1.123    core radius for proj-oper                               
   RAUG   =    1.200    factor for augmentation sphere                          
   RDEP   =    1.112    radius for radial grids                                 
   RDEPT  =    0.926    core radius for aug-charge                              
                                                                                
   Atomic configuration                                                         
    2 entries                                                                   
     n  l   j            E        occ.                                          
     1  0  0.50        -6.4927   1.0000                                         
     2  1  0.50        -3.4015   0.0000                                         
   Description                                                                  
     l       E           TYP  RCUT    TYP  RCUT                                 
     0     -6.4927494     23  1.100                                             
     0      6.8029130     23  1.100                                             
     1     -4.0817478     23  1.100                                             
  local pseudopotential read in
  atomic valenz-charges read in
  non local Contribution for L=           0  read in
    real space projection operators read in
  non local Contribution for L=           0  read in
    real space projection operators read in
  non local Contribution for L=           1  read in
    real space projection operators read in
    PAW grid and wavefunctions read in
 
   number of l-projection  operators is LMAX  =           3
   number of lm-projection operators is LMMAX =           5
 
 POTCAR:    PAW_PBE O 08Apr2002                   
   VRHFIN =O: s2p4                                                              
   LEXCH  = PE                                                                  
   EATOM  =   432.3788 eV,   31.7789 Ry                                         
                                                                                
   TITEL  = PAW_PBE O 08Apr2002                                                 
   LULTRA =        F    use ultrasoft PP ?                                      
   IUNSCR =        1    unscreen: 0-lin 1-nonlin 2-no                           
   RPACOR =    1.200    partial core radius                                     
   POMASS =   16.000; ZVAL   =    6.000    mass and valenz                      
   RCORE  =    1.520    outmost cutoff radius                                   
   RWIGS  =    1.550; RWIGS  =    0.820    wigner-seitz radius (au A)           
   ENMAX  =  400.000; ENMIN  =  300.000 eV                                      
   ICORE  =        2    local potential                                         
   LCOR   =        T    correct aug charges                                     
   LPAW   =        T    paw PP                                                  
   EAUG   =  605.392                                                            
   DEXC   =    0.000                                                            
   RMAX   =    1.553    core radius for proj-oper                               
   RAUG   =    1.300    factor for augmentation sphere                          
   RDEP   =    1.550    radius for radial grids                                 
   RDEPT  =    1.329    core radius for aug-charge                              
                                                                                
   Atomic configuration                                                         
    4 entries                                                                   
     n  l   j            E        occ.                                          
     1  0  0.50      -514.6923   2.0000                                         
     2  0  0.50       -23.9615   2.0000                                         
     2  1  0.50        -9.0305   4.0000                                         
     3  2  1.50        -9.5241   0.0000                                         
   Description                                                                  
     l       E           TYP  RCUT    TYP  RCUT                                 
     0    -23.9615318     23  1.200                                             
     0     -9.5240782     23  1.200                                             
     1     -9.0304911     23  1.520                                             
     1      8.1634956     23  1.520                                             
     2     -9.5240782      7  1.500                                             
  local pseudopotential read in
  partial core-charges read in
  partial kinetic energy density read in
  kinetic energy density of atom read in
  atomic valenz-charges read in
  non local Contribution for L=           0  read in
    real space projection operators read in
  non local Contribution for L=           0  read in
    real space projection operators read in
  non local Contribution for L=           1  read in
    real space projection operators read in
  non local Contribution for L=           1  read in
    real space projection operators read in
    PAW grid and wavefunctions read in
 
   number of l-projection  operators is LMAX  =           4
   number of lm-projection operators is LMMAX =           8
 
  PAW_PBE H 15Jun2001                   :
 energy of atom  1       EATOM=  -12.4884
 kinetic energy error for atom=    0.0098 (will be added to EATOM!!)
  PAW_PBE O 08Apr2002                   :
 energy of atom  2       EATOM= -432.3788
 kinetic energy error for atom=    0.1156 (will be added to EATOM!!)
 
 
 POSCAR: H2O _2                                  
  positions in cartesian coordinates
  No initial velocities read in
 exchange correlation table for  LEXCH =        8
   RHO(1)=    0.500       N(1)  =     2000
   RHO(2)=  100.500       N(2)  =     4000
 


--------------------------------------------------------------------------------------------------------


 ion  position               nearest neighbor table
   1  0.000  0.000  0.000-   2 0.95   3 0.95
   2  0.073  0.905  0.000-   1 0.95   3 1.51
   3  0.073  0.095  0.000-   1 0.95   2 1.51
 
  LATTYP: Found a simple cubic cell.
 ALAT       =     7.9377000000
  
  Lattice vectors:
  
 A1 = (   7.9377000000,   0.0000000000,   0.0000000000)
 A2 = (   0.0000000000,   7.9377000000,   0.0000000000)
 A3 = (   0.0000000000,   0.0000000000,   7.9377000000)


Analysis of symmetry for initial positions (statically):
=====================================================================
 Subroutine PRICEL returns:
 Original cell was already a primitive cell.
 

 Routine SETGRP: Setting up the symmetry group for a 
 simple cubic supercell.


 Subroutine GETGRP returns: Found  4 space group operations
 (whereof  4 operations were pure point group operations)
 out of a pool of 48 trial point group operations.


The static configuration has the point symmetry C_2v.


Analysis of symmetry for dynamics (positions and initial velocities):
=====================================================================
 Subroutine PRICEL returns:
 Original cell was already a primitive cell.
 

 Routine SETGRP: Setting up the symmetry group for a 
 simple cubic supercell.


 Subroutine GETGRP returns: Found  4 space group operations
 (whereof  4 operations were pure point group operations)
 out of a pool of 48 trial point group operations.


The dynamic configuration has the point symmetry C_2v.


Analysis of constrained symmetry for selective dynamics:
=====================================================================
 Subroutine PRICEL returns:
 Original cell was already a primitive cell.
 

 Routine SETGRP: Setting up the symmetry group for a 
 simple cubic supercell.


 Subroutine GETGRP returns: Found  4 space group operations
 (whereof  4 operations were pure point group operations)
 out of a pool of 48 trial point group operations.


The constrained configuration has the point symmetry C_2v.


 Subroutine INISYM returns: Found  4 space group operations
 (whereof  4 operations are pure point group operations),
 and found     1 'primitive' translations

 
 
 KPOINTS: Gamma-point only                        

Automatic generation of k-mesh.
Space group operators:
 irot       det(A)        alpha          n_x          n_y          n_z        tau_x        tau_y        tau_z
    1     1.000000     0.000001     1.000000     0.000000     0.000000     0.000000     0.000000     0.000000
    2    -1.000000   180.000000     0.000000     0.000000     1.000000     0.000000     0.000000     0.000000
    3     1.000000   180.000000     1.000000     0.000000     0.000000     0.000000     0.000000     0.000000
    4    -1.000000   180.000000     0.000000     1.000000     0.000000     0.000000     0.000000     0.000000
 
 Subroutine IBZKPT returns following result:
 ===========================================
 
 Found      1 irreducible k-points:
 
 Following reciprocal coordinates:
            Coordinates               Weight
  0.000000  0.000000  0.000000      1.000000
 
 Following cartesian coordinates:
            Coordinates               Weight
  0.000000  0.000000  0.000000      1.000000
 


--------------------------------------------------------------------------------------------------------




 Dimension of arrays:
   k-points           NKPTS =      1   k-points in BZ     NKDIM =      1   number of bands    NBANDS=     16
   number of dos      NEDOS =    301   number of ions     NIONS =      3
   non local maximal  LDIM  =      4   non local SUM 2l+1 LMDIM =      8
   total plane-waves  NPLWV =  64000
   max r-space proj   IRMAX =      1   max aug-charges    IRDMAX=   1860
   dimension x,y,z NGX =    40 NGY =   40 NGZ =   40
   dimension x,y,z NGXF=    80 NGYF=   80 NGZF=   80
   support grid    NGXF=    80 NGYF=   80 NGZF=   80
   ions per type =               1   2
   NGX,Y,Z   is equivalent  to a cutoff of   8.38,  8.38,  8.38 a.u.
   NGXF,Y,Z  is equivalent  to a cutoff of  16.76, 16.76, 16.76 a.u.

 SYSTEM =  unknown system                          
 POSCAR =  H2O _2                                  

 Startparameter for this run:
   NWRITE =      2    write-flag & timer
   PREC   = normal    normal or accurate (medium, high low for compatibility)
   ISTART =      0    job   : 0-new  1-cont  2-samecut
   ICHARG =      2    charge: 1-file 2-atom 10-const
   ISPIN  =      1    spin polarized calculation?
   LNONCOLLINEAR =      F non collinear calculations
   LSORBIT =      F    spin-orbit coupling
   INIWAV =      1    electr: 0-lowe 1-rand  2-diag
   LASPH  =      F    aspherical Exc in radial PAW
   METAGGA=      F    non-selfconsistent MetaGGA calc.

 Electronic Relaxation 1
   ENCUT  =  400.0 eV  29.40 Ry    5.42 a.u.  12.94 12.94 12.94*2*pi/ulx,y,z
   ENINI  =  400.0     initial cutoff
   ENAUG  =  605.4 eV  augmentation charge cutoff
   NELM   =     60;   NELMIN=  2; NELMDL= -5     # of ELM steps 
   EDIFF  = 0.1E-03   stopping-criterion for ELM
   LREAL  =      F    real-space projection
   NLSPLINE    = F    spline interpolate recip. space projectors
   LCOMPAT=      F    compatible to vasp.4.4
   GGA_COMPAT  = T    GGA compatible to vasp.4.4-vasp.4.6
   LMAXPAW     = -100 max onsite density
   LMAXMIX     =    2 max onsite mixed and CHGCAR
   VOSKOWN=      0    Vosko Wilk Nusair interpolation
   ROPT   =    0.00000   0.00000
 Ionic relaxation
   EDIFFG = -.2E-01   stopping-criterion for IOM
   NSW    =     10    number of steps for IOM
   NBLOCK =      1;   KBLOCK =     10    inner block; outer block 
   IBRION =      1    ionic relax: 0-MD 1-quasi-New 2-CG
   NFREE  =      2    steps in history (QN), initial steepest desc. (CG)
   ISIF   =      2    stress and relaxation
   IWAVPR =     11    prediction:  0-non 1-charg 2-wave 3-comb
   ISYM   =      2    0-nonsym 1-usesym 2-fastsym
   LCORR  =      T    Harris-Foulkes like correction to forces

   POTIM  = 0.5000    time-step for ionic-motion
   TEIN   =    0.0    initial temperature
   TEBEG  =    0.0;   TEEND  =   0.0 temperature during run
   SMASS  =  -3.00    Nose mass-parameter (am)
   estimated Nose-frequenzy (Omega)   =  0.10E-29 period in steps =****** mass=  -0.144E-26a.u.
   SCALEE = 1.0000    scale energy and forces
   NPACO  =    256;   APACO  = 16.0  distance and # of slots for P.C.
   PSTRESS=    0.0 pullay stress

  Mass of Ions in am
   POMASS =   1.00 16.00
  Ionic Valenz
   ZVAL   =   1.00  6.00
  Atomic Wigner-Seitz radii
   RWIGS  =  -1.00 -1.00
  virtual crystal weights 
   VCA    =   1.00  1.00
   NELECT =      13.0000    total number of electrons
   NUPDOWN=      -1.0000    fix difference up-down

 DOS related values:
   EMIN   =  10.00;   EMAX   =-10.00  energy-range for DOS
   EFERMI =   0.00
   ISMEAR =     0;   SIGMA  =   0.10  broadening in eV -4-tet -1-fermi 0-gaus

 Electronic relaxation 2 (details)
   IALGO  =     38    algorithm
   LDIAG  =      T    sub-space diagonalisation (order eigenvalues)
   LSUBROT=      F    optimize rotation matrix (better conditioning)
   TURBO    =      0    0=normal 1=particle mesh
   IRESTART =      0    0=no restart 2=restart with 2 vectors
   NREBOOT  =      0    no. of reboots
   NMIN     =      0    reboot dimension
   EREF     =   0.00    reference energy to select bands
   IMIX   =      4    mixing-type and parameters
     AMIX     =   0.40;   BMIX     =  1.00
     AMIX_MAG =   1.60;   BMIX_MAG =  1.00
     AMIN     =   0.10
     WC   =   100.;   INIMIX=   1;  MIXPRE=   1;  MAXMIX= -45

 Intra band minimization:
   WEIMIN = 0.0010     energy-eigenvalue tresh-hold
   EBREAK =  0.16E-05  absolut break condition
   DEPER  =   0.30     relativ break condition  

   TIME   =   0.40     timestep for ELM

  volume/ion in A,a.u.               =     166.71      1125.02
  Fermi-wavevector in a.u.,A,eV,Ry     =   0.484947  0.916418  3.199736  0.235174
  Thomas-Fermi vector in A             =   1.484914
 
 Write flags
   LWAVE        =      T    write WAVECAR
   LDOWNSAMPLE  =      F    k-point downsampling of WAVECAR
   LCHARG       =      T    write CHGCAR
   LVTOT        =      F    write LOCPOT, total local potential
   LVHAR        =      F    write LOCPOT, Hartree potential only
   LELF         =      F    write electronic localiz. function (ELF)
   LORBIT       =      0    0 simple, 1 ext, 2 COOP (PROOUT), +10 PAW based schemes


 Dipole corrections
   LMONO  =      F    monopole corrections only (constant potential shift)
   LDIPOL =      F    correct potential (dipole corrections)
   IDIPOL =      0    1-x, 2-y, 3-z, 4-all directions 
   EPSILON=  1.0000000 bulk dielectric constant

 Exchange correlation treatment:
   GGA     =    --    GGA type
   LEXCH   =     8    internal setting for exchange type
   VOSKOWN=      0    Vosko Wilk Nusair interpolation
   LHFCALC =     F    Hartree Fock is set to
   LHFONE  =     F    Hartree Fock one center treatment
   AEXX    =    0.0000 exact exchange contribution

 Linear response parameters
   LEPSILON=     F    determine dielectric tensor
   LRPA    =     F    only Hartree local field effects (RPA)
   LNABLA  =     F    use nabla operator in PAW spheres
   LVEL    =     F    velocity operator in full k-point grid
   LINTERFAST=   F  fast interpolation
   KINTER  =     0    interpolate to denser k-point grid
   CSHIFT  =0.1000    complex shift for real part using Kramers Kronig
   OMEGAMAX=  -1.0    maximum frequency
   DEG_THRESHOLD= 0.2000000E-02 threshold for treating states as degnerate
   RTIME   =   -0.100 relaxation time in fs
  (WPLASMAI=    0.000 imaginary part of plasma frequency in eV, 0.658/RTIME)
   DFIELD  = 0.0000000 0.0000000 0.0000000 field for delta impulse in time
 
 Orbital magnetization related:
   ORBITALMAG=     F  switch on orbital magnetization
   LCHIMAG   =     F  perturbation theory with respect to B field
   DQ        =  0.001000  dq finite difference perturbation B field
   LLRAUG    =     F  two centre corrections for induced B field



--------------------------------------------------------------------------------------------------------


 quasi-Newton-method for relaxation of ions
   using selective dynamics as specified on POSCAR
   WARNING: If single coordinates had been selected the selection of coordinates
            is made according to the corresponding   d i r e c t   coordinates!
            Don't support selection of single cartesian coordinates -- sorry ...
  !
 charge density and potential will be updated during run
 non-spin polarized calculation
 Variant of blocked Davidson
 Davidson routine will perform the subspace rotation
 perform sub-space diagonalisation
    after iterative eigenvector-optimisation
 modified Broyden-mixing scheme, WC =      100.0
 initial mixing is a Kerker type mixing with AMIX =  0.4000 and BMIX =      1.0000
 Hartree-type preconditioning will be used
 using additional bands            9
 reciprocal scheme for non local part
 use partial core corrections
 calculate Harris-corrections to forces 
   (improved forces if not selfconsistent)
 use gradient corrections 
 use of overlap-Matrix (Vanderbilt PP)
 Gauss-broadening in eV      SIGMA  =   0.10


--------------------------------------------------------------------------------------------------------


  energy-cutoff  :      400.00
  volume of cell :      500.13
      direct lattice vectors                 reciprocal lattice vectors
     7.937700000  0.000000000  0.000000000     0.125981078  0.000000000  0.000000000
     0.000000000  7.937700000  0.000000000     0.000000000  0.125981078  0.000000000
     0.000000000  0.000000000  7.937700000     0.000000000  0.000000000  0.125981078

  length of vectors
     7.937700000  7.937700000  7.937700000     0.125981078  0.125981078  0.125981078


 
 k-points in units of 2pi/SCALE and weight: Gamma-point only                        
   0.00000000  0.00000000  0.00000000       1.000
 
 k-points in reciprocal lattice and weights: Gamma-point only                        
   0.00000000  0.00000000  0.00000000       1.000
 
 position of ions in fractional coordinates (direct lattice) 
   0.00000000  0.00000000  0.00000000
   0.07333333  0.90466667  0.00000000
   0.07333333  0.09533333  0.00000000
 
 position of ions in cartesian coordinates  (Angst):
   0.00000000  0.00000000  0.00000000
   0.58209800  7.18097260  0.00000000
   0.58209800  0.75672740  0.00000000
 


--------------------------------------------------------------------------------------------------------


 k-point  1 :   0.0000 0.0000 0.0000  plane waves:    9045

 maximum and minimum number of plane-waves per node :      9045     9045

 maximum number of plane-waves:      9045
 maximum index in each direction: 
   IXMAX=   12   IYMAX=   12   IZMAX=   12
   IXMIN=  -12   IYMIN=  -12   IZMIN=  -12


 serial   3D FFT for wavefunctions
 parallel 3D FFT for charge:
    minimum data exchange during FFTs selected (reduces bandwidth)


 total amount of memory used by VASP MPI-rank0    37533. kBytes
=======================================================================

   base      :      30000. kBytes
   nonl-proj :       1593. kBytes
   fftplans  :       1377. kBytes
   grid      :       4409. kBytes
   one-center:          9. kBytes
   wavefun   :        145. kBytes
 
     INWAV:  cpu time    0.0000: real time    0.0001
 Broyden mixing: mesh for mixing (old mesh)
   NGX = 25   NGY = 25   NGZ = 25
  (NGX  = 80   NGY  = 80   NGZ  = 80)
  gives a total of  15625 points

 initial charge density was supplied:
 charge density of overlapping atoms calculated
 number of electron      13.0000000 magnetization 
 keeping initial charge density in first step


--------------------------------------------------------------------------------------------------------


 Maximum index for augmentation-charges           89 (set IRDMAX)


--------------------------------------------------------------------------------------------------------


 First call to EWALD:  gamma=   0.223
 Maximum number of real-space cells 3x 3x 3
 Maximum number of reciprocal cells 3x 3x 3

    FEWALD:  cpu time    0.3520: real time    0.0879


--------------------------------------- Iteration      1(   1)  ---------------------------------------


    POTLOK:  cpu time    3.2080: real time    0.8068
    SETDIJ:  cpu time    0.0720: real time    0.0178
     EDDAV:  cpu time    1.7440: real time    0.4363
       DOS:  cpu time    0.0480: real time    0.0119
    --------------------------------------------
      LOOP:  cpu time    5.0720: real time    1.2732

 eigenvalue-minimisations  :    32
 total energy-change (2. order) : 0.1088385E+03  (-0.3144441E+03)
 number of electron      13.0000000 magnetization 
 augmentation part       13.0000000 magnetization 

 Free energy of the ion-electron system (eV)
  ---------------------------------------------------
  alpha Z        PSCENC =         1.26727950
  Ewald energy   TEWEN  =        94.48331469
  -Hartree energ DENC   =      -816.33685448
  -exchange      EXHF   =         0.00000000
  -V(xc)+E(xc)   XCENC  =        57.20351130
  PAW double counting   =       695.23298122     -698.83920033
  entropy T*S    EENTRO =        -0.05875830
  eigenvalues    EBANDS =      -101.11882746
  atomic energy  EATOM  =       877.00502474
  Solvation  Ediel_sol  =         0.00000000
  ---------------------------------------------------
  free energy    TOTEN  =       108.83847087 eV

  energy without entropy =      108.89722917  energy(sigma->0) =      108.86785002


--------------------------------------------------------------------------------------------------------




--------------------------------------- Iteration      1(   2)  ---------------------------------------


     EDDAV:  cpu time    6.9640: real time    1.7412
       DOS:  cpu time    0.0320: real time    0.0077
    --------------------------------------------
      LOOP:  cpu time    6.9960: real time    1.7489

 eigenvalue-minimisations  :    64
 total energy-change (2. order) :-0.1149762E+03  (-0.1149340E+03)
 number of electron      13.0000000 magnetization 
 augmentation part       13.0000000 magnetization 

 Free energy of the ion-electron system (eV)
  ---------------------------------------------------
  alpha Z        PSCENC =         1.26727950
  Ewald energy   TEWEN  =        94.48331469
  -Hartree energ DENC   =      -816.33685448
  -exchange      EXHF   =         0.00000000
  -V(xc)+E(xc)   XCENC  =        57.20351130
  PAW double counting   =       695.23298122     -698.83920033
  entropy T*S    EENTRO =        -0.05641896
  eigenvalues    EBANDS =      -216.09737931
  atomic energy  EATOM  =       877.00502474
  Solvation  Ediel_sol  =         0.00000000
  ---------------------------------------------------
  free energy    TOTEN  =        -6.13774164 eV

  energy without entropy =       -6.08132268  energy(sigma->0) =       -6.10953216


--------------------------------------------------------------------------------------------------------




--------------------------------------- Iteration      1(   3)  ---------------------------------------


     EDDAV:  cpu time    4.1880: real time    1.0470
       DOS:  cpu time    0.0320: real time    0.0078
    --------------------------------------------
      LOOP:  cpu time    4.2200: real time    1.0548

 eigenvalue-minimisations  :    32
 total energy-change (2. order) :-0.4076794E+01  (-0.4076794E+01)
 number of electron      13.0000000 magnetization 
 augmentation part       13.0000000 magnetization 

 Free energy of the ion-electron system (eV)
  ---------------------------------------------------
  alpha Z        PSCENC =         1.26727950
  Ewald energy   TEWEN  =        94.48331469
  -Hartree energ DENC   =      -816.33685448
  -exchange      EXHF   =         0.00000000
  -V(xc)+E(xc)   XCENC  =        57.20351130
  PAW double counting   =       695.23298122     -698.83920033
  entropy T*S    EENTRO =        -0.05641896
  eigenvalues    EBANDS =      -220.17417286
  atomic energy  EATOM  =       877.00502474
  Solvation  Ediel_sol  =         0.00000000
  ---------------------------------------------------
  free energy    TOTEN  =       -10.21453520 eV

  energy without entropy =      -10.15811624  energy(sigma->0) =      -10.18632572


--------------------------------------------------------------------------------------------------------




--------------------------------------- Iteration      1(   4)  ---------------------------------------


     EDDAV:  cpu time    2.9600: real time    0.7407
       DOS:  cpu time    0.1360: real time    0.0338
    --------------------------------------------
      LOOP:  cpu time    3.0960: real time    0.7745

 eigenvalue-minimisations  :    48
 total energy-change (2. order) :-0.2879942E-01  (-0.2879942E-01)
 number of electron      13.0000000 magnetization 
 augmentation part       13.0000000 magnetization 

 Free energy of the ion-electron system (eV)
  ---------------------------------------------------
  alpha Z        PSCENC =         1.26727950
  Ewald energy   TEWEN  =        94.48331469
  -Hartree energ DENC   =      -816.33685448
  -exchange      EXHF   =         0.00000000
  -V(xc)+E(xc)   XCENC  =        57.20351130
  PAW double counting   =       695.23298122     -698.83920033
  entropy T*S    EENTRO =        -0.05641896
  eigenvalues    EBANDS =      -220.20297228
  atomic energy  EATOM  =       877.00502474
  Solvation  Ediel_sol  =         0.00000000
  ---------------------------------------------------
  free energy    TOTEN  =       -10.24333461 eV

  energy without entropy =      -10.18691566  energy(sigma->0) =      -10.21512513


--------------------------------------------------------------------------------------------------------




--------------------------------------- Iteration      1(   5)  ---------------------------------------


     EDDAV:  cpu time    6.7040: real time    1.6760
       DOS:  cpu time    0.0240: real time    0.0064
    CHARGE:  cpu time    0.9040: real time    0.2258
    MIXING:  cpu time    0.5600: real time    0.1401
    --------------------------------------------
      LOOP:  cpu time    8.1960: real time    2.0484

 eigenvalue-minimisations  :    64
 total energy-change (2. order) :-0.2491126E-04  (-0.2491184E-04)
 number of electron      13.0000109 magnetization 
 augmentation part        1.2060278 magnetization 

 Broyden mixing:
  rms(total) = 0.69457E+00    rms(broyden)= 0.68136E+00
  rms(prec ) = 0.82464E+00
  weight for this iteration     100.00

 Free energy of the ion-electron system (eV)
  ---------------------------------------------------
  alpha Z        PSCENC =         1.26727950
  Ewald energy   TEWEN  =        94.48331469
  -Hartree energ DENC   =      -816.33685448
  -exchange      EXHF   =         0.00000000
  -V(xc)+E(xc)   XCENC  =        57.20351130
  PAW double counting   =       695.23298122     -698.83920033
  entropy T*S    EENTRO =        -0.05641896
  eigenvalues    EBANDS =      -220.20299719
  atomic energy  EATOM  =       877.00502474
  Solvation  Ediel_sol  =         0.00000000
  ---------------------------------------------------
  free energy    TOTEN  =       -10.24335952 eV

  energy without entropy =      -10.18694057  energy(sigma->0) =      -10.21515005


--------------------------------------------------------------------------------------------------------




--------------------------------------- Iteration      1(   6)  ---------------------------------------


    POTLOK:  cpu time    3.7840: real time    0.9466
    SETDIJ:  cpu time    0.7040: real time    0.1755
     EDDAV:  cpu time    1.7560: real time    0.4510
       DOS:  cpu time    0.0320: real time    0.0078
    CHARGE:  cpu time    0.8280: real time    0.2073
    MIXING:  cpu time    0.1680: real time    0.0422
    --------------------------------------------
      LOOP:  cpu time    7.2720: real time    1.8305

 eigenvalue-minimisations  :    32
 total energy-change (2. order) : 0.5654380E+00  (-0.7773579E-01)
 number of electron      13.0000106 magnetization 
 augmentation part        1.1668599 magnetization 

 Broyden mixing:
  rms(total) = 0.36344E+00    rms(broyden)= 0.36284E+00
  rms(prec ) = 0.42837E+00
  weight for this iteration     100.00

 eigenvalues of (default mixing * dielectric matrix)
  average eigenvalue GAMMA=   1.8917
  1.8917

 Free energy of the ion-electron system (eV)
  ---------------------------------------------------
  alpha Z        PSCENC =         1.26727950
  Ewald energy   TEWEN  =        94.48331469
  -Hartree energ DENC   =      -828.27317041
  -exchange      EXHF   =         0.00000000
  -V(xc)+E(xc)   XCENC  =        57.96435773
  PAW double counting   =       789.45722626     -793.15564599
  entropy T*S    EENTRO =        -0.05641896
  eigenvalues    EBANDS =      -208.36988910
  atomic energy  EATOM  =       877.00502474
  Solvation  Ediel_sol  =         0.00000000
  ---------------------------------------------------
  free energy    TOTEN  =        -9.67792155 eV

  energy without entropy =       -9.62150259  energy(sigma->0) =       -9.64971207


--------------------------------------------------------------------------------------------------------




--------------------------------------- Iteration      1(   7)  ---------------------------------------


    POTLOK:  cpu time    1.9720: real time    0.4927
    SETDIJ:  cpu time    0.3040: real time    0.0759
     EDDAV:  cpu time    4.1200: real time    1.0302
       DOS:  cpu time    0.0600: real time    0.0147
    CHARGE:  cpu time    0.7640: real time    0.1914
    MIXING:  cpu time    0.1000: real time    0.0246
    --------------------------------------------
      LOOP:  cpu time    7.3160: real time    1.8295

 eigenvalue-minimisations  :    48
 total energy-change (2. order) : 0.1100885E+00  (-0.3014179E-01)
 number of electron      13.0000105 magnetization 
 augmentation part        1.1450699 magnetization 

 Broyden mixing:
  rms(total) = 0.98413E-01    rms(broyden)= 0.98336E-01
  rms(prec ) = 0.11873E+00
  weight for this iteration     100.00

 eigenvalues of (default mixing * dielectric matrix)
  average eigenvalue GAMMA=   1.9238
  1.4440  2.4036

 Free energy of the ion-electron system (eV)
  ---------------------------------------------------
  alpha Z        PSCENC =         1.26727950
  Ewald energy   TEWEN  =        94.48331469
  -Hartree energ DENC   =      -836.61128472
  -exchange      EXHF   =         0.00000000
  -V(xc)+E(xc)   XCENC  =        58.47102416
  PAW double counting   =       902.85111776     -906.54972378
  entropy T*S    EENTRO =        -0.05642109
  eigenvalues    EBANDS =      -200.42816427
  atomic energy  EATOM  =       877.00502474
  Solvation  Ediel_sol  =         0.00000000
  ---------------------------------------------------
  free energy    TOTEN  =        -9.56783302 eV

  energy without entropy =       -9.51141193  energy(sigma->0) =       -9.53962247


--------------------------------------------------------------------------------------------------------




--------------------------------------- Iteration      1(   8)  ---------------------------------------


    POTLOK:  cpu time    2.3800: real time    0.5981
    SETDIJ:  cpu time    0.1000: real time    0.0253
     EDDAV:  cpu time    4.4000: real time    1.1001
       DOS:  cpu time    0.0280: real time    0.0066
    CHARGE:  cpu time    0.7520: real time    0.1885
    MIXING:  cpu time    0.0520: real time    0.0131
    --------------------------------------------
      LOOP:  cpu time    7.7160: real time    1.9317

 eigenvalue-minimisations  :    48
 total energy-change (2. order) : 0.3470164E-02  (-0.2555870E-02)
 number of electron      13.0000105 magnetization 
 augmentation part        1.1502528 magnetization 

 Broyden mixing:
  rms(total) = 0.10713E-01    rms(broyden)= 0.10673E-01
  rms(prec ) = 0.24375E-01
  weight for this iteration     100.00

 eigenvalues of (default mixing * dielectric matrix)
  average eigenvalue GAMMA=   1.8235
  2.3640  1.5532  1.5532

 Free energy of the ion-electron system (eV)
  ---------------------------------------------------
  alpha Z        PSCENC =         1.26727950
  Ewald energy   TEWEN  =        94.48331469
  -Hartree energ DENC   =      -836.87533086
  -exchange      EXHF   =         0.00000000
  -V(xc)+E(xc)   XCENC  =        58.47752154
  PAW double counting   =       941.17476693     -944.80855588
  entropy T*S    EENTRO =        -0.05654001
  eigenvalues    EBANDS =      -200.23184349
  atomic energy  EATOM  =       877.00502474
  Solvation  Ediel_sol  =         0.00000000
  ---------------------------------------------------
  free energy    TOTEN  =        -9.56436285 eV

  energy without entropy =       -9.50782284  energy(sigma->0) =       -9.53609285


--------------------------------------------------------------------------------------------------------




--------------------------------------- Iteration      1(   9)  ---------------------------------------


    POTLOK:  cpu time    2.5720: real time    0.6433
    SETDIJ:  cpu time    1.1120: real time    0.2781
     EDDAV:  cpu time    3.8760: real time    0.9695
       DOS:  cpu time    0.0360: real time    0.0083
    CHARGE:  cpu time    0.7840: real time    0.1966
    MIXING:  cpu time    0.2640: real time    0.0661
    --------------------------------------------
      LOOP:  cpu time    8.6440: real time    2.1620

 eigenvalue-minimisations  :    64
 total energy-change (2. order) :-0.1363363E-02  (-0.3312337E-03)
 number of electron      13.0000104 magnetization 
 augmentation part        1.1482524 magnetization 

 Broyden mixing:
  rms(total) = 0.76215E-02    rms(broyden)= 0.76067E-02
  rms(prec ) = 0.15083E-01
  weight for this iteration     100.00

 eigenvalues of (default mixing * dielectric matrix)
  average eigenvalue GAMMA=   1.7212
  2.4333  2.0305  1.2105  1.2105

 Free energy of the ion-electron system (eV)
  ---------------------------------------------------
  alpha Z        PSCENC =         1.26727950
  Ewald energy   TEWEN  =        94.48331469
  -Hartree energ DENC   =      -837.77460786
  -exchange      EXHF   =         0.00000000
  -V(xc)+E(xc)   XCENC  =        58.51552951
  PAW double counting   =       941.53045156     -945.16782463
  entropy T*S    EENTRO =        -0.05652527
  eigenvalues    EBANDS =      -199.36836844
  atomic energy  EATOM  =       877.00502474
  Solvation  Ediel_sol  =         0.00000000
  ---------------------------------------------------
  free energy    TOTEN  =        -9.56572621 eV

  energy without entropy =       -9.50920094  energy(sigma->0) =       -9.53746358


--------------------------------------------------------------------------------------------------------




--------------------------------------- Iteration      1(  10)  ---------------------------------------


    POTLOK:  cpu time    4.2800: real time    1.0730
    SETDIJ:  cpu time    0.0680: real time    0.0167
     EDDAV:  cpu time    2.6080: real time    0.6522
       DOS:  cpu time    0.0680: real time    0.0170
    CHARGE:  cpu time    1.7160: real time    0.4297
    MIXING:  cpu time    0.4320: real time    0.1075
    --------------------------------------------
      LOOP:  cpu time    9.1680: real time    2.2961

 eigenvalue-minimisations  :    64
 total energy-change (2. order) :-0.1436028E-02  (-0.5587387E-04)
 number of electron      13.0000105 magnetization 
 augmentation part        1.1491654 magnetization 

 Broyden mixing:
  rms(total) = 0.31124E-02    rms(broyden)= 0.31086E-02
  rms(prec ) = 0.82338E-02
  weight for this iteration     100.00

 eigenvalues of (default mixing * dielectric matrix)
  average eigenvalue GAMMA=   1.8875
  2.9132  2.4016  1.0137  1.7765  1.3324

 Free energy of the ion-electron system (eV)
  ---------------------------------------------------
  alpha Z        PSCENC =         1.26727950
  Ewald energy   TEWEN  =        94.48331469
  -Hartree energ DENC   =      -837.77912904
  -exchange      EXHF   =         0.00000000
  -V(xc)+E(xc)   XCENC  =        58.50601343
  PAW double counting   =       941.32136947     -944.95063465
  entropy T*S    EENTRO =        -0.05652363
  eigenvalues    EBANDS =      -199.36387676
  atomic energy  EATOM  =       877.00502474
  Solvation  Ediel_sol  =         0.00000000
  ---------------------------------------------------
  free energy    TOTEN  =        -9.56716224 eV

  energy without entropy =       -9.51063862  energy(sigma->0) =       -9.53890043


--------------------------------------------------------------------------------------------------------




--------------------------------------- Iteration      1(  11)  ---------------------------------------


    POTLOK:  cpu time    3.0480: real time    0.7617
    SETDIJ:  cpu time    0.0800: real time    0.0207
     EDDAV:  cpu time    2.0400: real time    0.5099
       DOS:  cpu time    0.0400: real time    0.0098
    CHARGE:  cpu time    1.8520: real time    0.4634
    MIXING:  cpu time    1.2400: real time    0.3190
    --------------------------------------------
      LOOP:  cpu time    8.3040: real time    2.0845

 eigenvalue-minimisations  :    48
 total energy-change (2. order) :-0.2260147E-02  (-0.4469140E-04)
 number of electron      13.0000105 magnetization 
 augmentation part        1.1487878 magnetization 

 Broyden mixing:
  rms(total) = 0.14755E-02    rms(broyden)= 0.14736E-02
  rms(prec ) = 0.33398E-02
  weight for this iteration     100.00

 eigenvalues of (default mixing * dielectric matrix)
  average eigenvalue GAMMA=   1.9085
  3.5590  2.4669  0.9725  1.6696  1.3914  1.3914

 Free energy of the ion-electron system (eV)
  ---------------------------------------------------
  alpha Z        PSCENC =         1.26727950
  Ewald energy   TEWEN  =        94.48331469
  -Hartree energ DENC   =      -838.07320759
  -exchange      EXHF   =         0.00000000
  -V(xc)+E(xc)   XCENC  =        58.51326154
  PAW double counting   =       940.56611926     -944.19573565
  entropy T*S    EENTRO =        -0.05652027
  eigenvalues    EBANDS =      -199.07895860
  atomic energy  EATOM  =       877.00502474
  Solvation  Ediel_sol  =         0.00000000
  ---------------------------------------------------
  free energy    TOTEN  =        -9.56942239 eV

  energy without entropy =       -9.51290212  energy(sigma->0) =       -9.54116225


--------------------------------------------------------------------------------------------------------




--------------------------------------- Iteration      1(  12)  ---------------------------------------


    POTLOK:  cpu time    2.2800: real time    0.5695
    SETDIJ:  cpu time    0.0840: real time    0.0210
     EDDAV:  cpu time    1.9440: real time    0.4863
       DOS:  cpu time    0.0440: real time    0.0111
    CHARGE:  cpu time    1.8280: real time    0.4572
    MIXING:  cpu time    1.6840: real time    0.4238
    --------------------------------------------
      LOOP:  cpu time    7.8640: real time    1.9689

 eigenvalue-minimisations  :    48
 total energy-change (2. order) :-0.9589238E-03  (-0.1108861E-04)
 number of electron      13.0000105 magnetization 
 augmentation part        1.1486301 magnetization 

 Broyden mixing:
  rms(total) = 0.92058E-03    rms(broyden)= 0.91952E-03
  rms(prec ) = 0.18166E-02
  weight for this iteration     100.00

 eigenvalues of (default mixing * dielectric matrix)
  average eigenvalue GAMMA=   2.1156
  4.7659  2.7020  2.3594  1.6729  1.3091  0.9998  0.9998

 Free energy of the ion-electron system (eV)
  ---------------------------------------------------
  alpha Z        PSCENC =         1.26727950
  Ewald energy   TEWEN  =        94.48331469
  -Hartree energ DENC   =      -838.14523833
  -exchange      EXHF   =         0.00000000
  -V(xc)+E(xc)   XCENC  =        58.51421702
  PAW double counting   =       940.22236764     -943.85303968
  entropy T*S    EENTRO =        -0.05652009
  eigenvalues    EBANDS =      -199.00778679
  atomic energy  EATOM  =       877.00502474
  Solvation  Ediel_sol  =         0.00000000
  ---------------------------------------------------
  free energy    TOTEN  =        -9.57038131 eV

  energy without entropy =       -9.51386123  energy(sigma->0) =       -9.54212127


--------------------------------------------------------------------------------------------------------




--------------------------------------- Iteration      1(  13)  ---------------------------------------


    POTLOK:  cpu time    1.8600: real time    0.4648
    SETDIJ:  cpu time    0.0880: real time    0.0219
     EDDAV:  cpu time    2.1440: real time    0.5358
       DOS:  cpu time    0.0440: real time    0.0106
    CHARGE:  cpu time    1.9800: real time    0.4950
    MIXING:  cpu time    1.4640: real time    0.3744
    --------------------------------------------
      LOOP:  cpu time    7.5760: real time    1.9025

 eigenvalue-minimisations  :    48
 total energy-change (2. order) :-0.4140700E-03  (-0.4584454E-05)
 number of electron      13.0000105 magnetization 
 augmentation part        1.1487243 magnetization 

 Broyden mixing:
  rms(total) = 0.32566E-03    rms(broyden)= 0.32540E-03
  rms(prec ) = 0.69395E-03
  weight for this iteration     100.00

 eigenvalues of (default mixing * dielectric matrix)
  average eigenvalue GAMMA=   2.2789
  5.5569  2.8891  2.5472  2.2251  1.6816  1.2781  1.0056  1.0475

 Free energy of the ion-electron system (eV)
  ---------------------------------------------------
  alpha Z        PSCENC =         1.26727950
  Ewald energy   TEWEN  =        94.48331469
  -Hartree energ DENC   =      -838.11823951
  -exchange      EXHF   =         0.00000000
  -V(xc)+E(xc)   XCENC  =        58.51177617
  PAW double counting   =       940.33477697     -943.96521527
  entropy T*S    EENTRO =        -0.05652295
  eigenvalues    EBANDS =      -199.03298971
  atomic energy  EATOM  =       877.00502474
  Solvation  Ediel_sol  =         0.00000000
  ---------------------------------------------------
  free energy    TOTEN  =        -9.57079538 eV

  energy without entropy =       -9.51427244  energy(sigma->0) =       -9.54253391


--------------------------------------------------------------------------------------------------------




--------------------------------------- Iteration      1(  14)  ---------------------------------------


    POTLOK:  cpu time    1.9960: real time    0.4992
    SETDIJ:  cpu time    0.0480: real time    0.0124
     EDDAV:  cpu time    1.2960: real time    0.3234
       DOS:  cpu time    0.0280: real time    0.0072
    CHARGE:  cpu time    0.7800: real time    0.1949
    MIXING:  cpu time    0.0600: real time    0.0155
    --------------------------------------------
      LOOP:  cpu time    4.2120: real time    1.0525

 eigenvalue-minimisations  :    32
 total energy-change (2. order) :-0.1883402E-03  (-0.1628457E-05)
 number of electron      13.0000105 magnetization 
 augmentation part        1.1487235 magnetization 

 Broyden mixing:
  rms(total) = 0.10558E-03    rms(broyden)= 0.10551E-03
  rms(prec ) = 0.18774E-03
  weight for this iteration     100.00

 eigenvalues of (default mixing * dielectric matrix)
  average eigenvalue GAMMA=   2.2563
  5.9852  3.3873  2.5093  2.3186  1.6445  1.3377  0.9709  1.0767  1.0767

 Free energy of the ion-electron system (eV)
  ---------------------------------------------------
  alpha Z        PSCENC =         1.26727950
  Ewald energy   TEWEN  =        94.48331469
  -Hartree energ DENC   =      -838.10218095
  -exchange      EXHF   =         0.00000000
  -V(xc)+E(xc)   XCENC  =        58.51105343
  PAW double counting   =       940.46975724     -944.10011553
  entropy T*S    EENTRO =        -0.05652234
  eigenvalues    EBANDS =      -199.04859450
  atomic energy  EATOM  =       877.00502474
  Solvation  Ediel_sol  =         0.00000000
  ---------------------------------------------------
  free energy    TOTEN  =        -9.57098372 eV

  energy without entropy =       -9.51446139  energy(sigma->0) =       -9.54272256


--------------------------------------------------------------------------------------------------------




--------------------------------------- Iteration      1(  15)  ---------------------------------------


    POTLOK:  cpu time    4.8480: real time    1.2188
    SETDIJ:  cpu time    0.0800: real time    0.0197
     EDDAV:  cpu time    1.1120: real time    0.2781
       DOS:  cpu time    0.0200: real time    0.0050
    --------------------------------------------
      LOOP:  cpu time    6.0560: real time    1.5215

 eigenvalue-minimisations  :    32
 total energy-change (2. order) :-0.1626579E-04  (-0.6609676E-07)
 number of electron      13.0000105 magnetization 
 augmentation part        1.1487235 magnetization 

 Free energy of the ion-electron system (eV)
  ---------------------------------------------------
  alpha Z        PSCENC =         1.26727950
  Ewald energy   TEWEN  =        94.48331469
  -Hartree energ DENC   =      -838.09808355
  -exchange      EXHF   =         0.00000000
  -V(xc)+E(xc)   XCENC  =        58.51086183
  PAW double counting   =       940.45121378     -944.08150427
  entropy T*S    EENTRO =        -0.05652221
  eigenvalues    EBANDS =      -199.05258449
  atomic energy  EATOM  =       877.00502474
  Solvation  Ediel_sol  =         0.00000000
  ---------------------------------------------------
  free energy    TOTEN  =        -9.57099999 eV

  energy without entropy =       -9.51447778  energy(sigma->0) =       -9.54273889


--------------------------------------------------------------------------------------------------------




 average (electrostatic) potential at core
  the test charge radii are     0.5201  0.7215
  (the norm of the test charge is              1.0000)
       1 -49.5904       2 -83.2213       3 -83.2213
 
 
 
 E-fermi :  -7.1251     XC(G=0):  -1.1684     alpha+bet : -0.3547


 k-point     1 :       0.0000    0.0000    0.0000
  band No.  band energies     occupation 
      1     -30.8674      2.00000
      2     -21.5864      2.00000
      3     -13.8293      2.00000
      4     -11.4469      2.00000
      5     -10.8577      2.00000
      6      -7.3762      1.99962
      7      -7.1252      1.00038
      8      -3.6006      0.00000
      9      -0.4178      0.00000
     10       1.7305      0.00000
     11       1.8953      0.00000
     12       1.9845      0.00000
     13       2.0403      0.00000
     14       2.0721      0.00000
     15       2.2716      0.00000
     16       3.8806      0.00000


--------------------------------------------------------------------------------------------------------


 soft charge-density along one line, spin component           1
         0         1         2         3         4         5         6         7         8         9
 total charge-density along one line
 
 pseudopotential strength for first ion, spin component:           1
 -2.445  -4.234  -0.000   0.000  -0.003
 -4.234  -7.245  -0.000   0.000  -0.011
 -0.000  -0.000  -0.286  -0.000   0.000
  0.000   0.000  -0.000  -0.300  -0.000
 -0.003  -0.011   0.000  -0.000  -0.292
 total augmentation occupancy for first ion, spin component:           1
  5.670  -1.492   0.000   0.000   0.810
 -1.492   0.482   0.000   0.000  -0.211
  0.000   0.000   0.339   0.000   0.000
  0.000   0.000   0.000   0.078   0.000
  0.810  -0.211   0.000   0.000   0.171


------------------------ aborting loop because EDIFF is reached ----------------------------------------


    CHARGE:  cpu time    0.9000: real time    0.2244
    FORLOC:  cpu time    0.0080: real time    0.0022
    FORNL :  cpu time    0.0520: real time    0.0128
    STRESS:  cpu time    3.9640: real time    0.9913
    FORCOR:  cpu time    1.2320: real time    0.3080
    FORHAR:  cpu time    0.2680: real time    0.0673
    MIXING:  cpu time    0.7160: real time    0.1789
    OFIELD:  cpu time    0.0000: real time    0.0003

  FORCE on cell =-STRESS in cart. coord.  units (eV):
  Direction    XX          YY          ZZ          XY          YZ          ZX
  --------------------------------------------------------------------------------------
  Alpha Z     1.26728     1.26728     1.26728
  Ewald     -79.67270   321.72281  -147.56691     0.00000    -0.00000    -0.00000
  Hartree   214.30213   434.47783   189.31966    -0.00000    -0.00000    -0.00000
  E(xc)     -62.17835   -61.35429   -62.60960     0.00000     0.00000    -0.00000
  Local    -326.08666  -890.84792  -230.57132    -0.00000     0.00000     0.00000
  n-local   -54.28392   -45.92714   -46.71588    -0.00000     0.00000     0.00000
  augment    14.80298     8.62995    12.49850    -0.00000     0.00000     0.00000
  Kinetic   297.00982   238.16409   282.78497    -0.00000     0.00000    -0.00000
  Fock        0.00000     0.00000     0.00000     0.00000     0.00000     0.00000
  -------------------------------------------------------------------------------------
  Total       5.16058     6.13260    -1.59330     0.00000     0.00000     0.00000
  in kB      16.53199    19.64586    -5.10415     0.00000     0.00000     0.00000
  external pressure =       10.36 kB  Pullay stress =        0.00 kB


 VOLUME and BASIS-vectors are now :
 -----------------------------------------------------------------------------
  energy-cutoff  :      400.00
  volume of cell :      500.13
      direct lattice vectors                 reciprocal lattice vectors
     7.937700000  0.000000000  0.000000000     0.125981078  0.000000000  0.000000000
     0.000000000  7.937700000  0.000000000     0.000000000  0.125981078  0.000000000
     0.000000000  0.000000000  7.937700000     0.000000000  0.000000000  0.125981078

  length of vectors
     7.937700000  7.937700000  7.937700000     0.125981078  0.125981078  0.125981078


 FORCES acting on ions
    electron-ion (+dipol)            ewald-force                    non-local-force                 convergence-correction
 -----------------------------------------------------------------------------------------------
   0.948E+02 0.276E-14 0.597E-15   -.115E+03 0.142E-13 -.229E-16   0.802E+01 -.432E-27 -.170E-28   -.504E-04 0.335E-14 -.781E-14
   -.379E+02 0.249E+03 -.512E-05   0.574E+02 -.294E+03 0.174E-16   -.135E+02 0.401E+02 0.839E-26   -.276E-03 -.680E-03 -.802E-13
   -.379E+02 -.249E+03 -.264E-04   0.574E+02 0.294E+03 0.952E-16   -.135E+02 -.401E+02 -.536E-26   -.276E-03 0.680E-03 -.393E-13
 -----------------------------------------------------------------------------------------------
   0.189E+02 -.182E-12 -.315E-04   -.711E-14 0.000E+00 0.897E-16   -.189E+02 0.000E+00 0.301E-26   -.602E-03 0.626E-13 -.127E-12
 
 
 POSITION                                       TOTAL-FORCE (eV/Angst)
 -----------------------------------------------------------------------------------
      0.00000      0.00000      0.00000       -11.946466     -0.000000      0.000000
      0.58210      7.18097      0.00000         5.973233     -4.868973     -0.000000
      0.58210      0.75673      0.00000         5.973233      4.868973      0.000000
 -----------------------------------------------------------------------------------
    total drift:                                0.013235     -0.000000     -0.000031


--------------------------------------------------------------------------------------------------------



  FREE ENERGIE OF THE ION-ELECTRON SYSTEM (eV)
  ---------------------------------------------------
  free  energy   TOTEN  =        -9.57099999 eV

  energy  without entropy=       -9.51447778  energy(sigma->0) =       -9.54273889
 


--------------------------------------------------------------------------------------------------------


    POTLOK:  cpu time    1.1400: real time    0.2853


--------------------------------------------------------------------------------------------------------


 Quasi-Newton relaxation of ions (Broydens 2nd method)
  g(Force)  = 0.573E+01   g(Stress)= 0.000E+00

 Reset! Starting new Quasi-Newton update for ions 


--------------------------------------------------------------------------------------------------------


    WAVPRE:  cpu time   39.8800: real time   10.0285
    FEWALD:  cpu time    0.2720: real time    0.0672
    ORTHCH:  cpu time    0.4200: real time    0.1050
     LOOP+:  cpu time  151.1160: real time   37.8899


--------------------------------------- Iteration      2(   1)  ---------------------------------------


    POTLOK:  cpu time    2.0760: real time    0.5203
    SETDIJ:  cpu time    0.0800: real time    0.0209
     EDDAV:  cpu time    1.3560: real time    0.3386
       DOS:  cpu time    0.0640: real time    0.0156
    CHARGE:  cpu time    0.9000: real time    0.2255
    MIXING:  cpu time    0.1680: real time    0.0421
    --------------------------------------------
      LOOP:  cpu time    4.6480: real time    1.1634

 eigenvalue-minimisations  :    32
 total energy-change (2. order) : 0.2729126E+01  (-0.1310540E+03)
 number of electron      13.0000095 magnetization 
 augmentation part        0.9830241 magnetization 

 Broyden mixing:
  rms(total) = 0.10289E+01    rms(broyden)= 0.10126E+01
  rms(prec ) = 0.12287E+01
  weight for this iteration     100.00

 Free energy of the ion-electron system (eV)
  ---------------------------------------------------
  alpha Z        PSCENC =         1.26727950
  Ewald energy   TEWEN  =       -31.98523025
  -Hartree energ DENC   =      -739.89497281
  -exchange      EXHF   =         0.00000000
  -V(xc)+E(xc)   XCENC  =        56.95827639
  PAW double counting   =       940.43158996     -944.06187687
  entropy T*S    EENTRO =        -0.08966800
  eigenvalues    EBANDS =      -166.47228059
  atomic energy  EATOM  =       877.00502474
  Solvation  Ediel_sol  =         0.00000000
  ---------------------------------------------------
  free energy    TOTEN  =        -6.84185793 eV

  energy without entropy =       -6.75218993  energy(sigma->0) =       -6.79702393


--------------------------------------------------------------------------------------------------------




--------------------------------------- Iteration      2(   2)  ---------------------------------------


    POTLOK:  cpu time    4.5560: real time    1.1431
    SETDIJ:  cpu time    0.0840: real time    0.0208
     EDDAV:  cpu time    2.5680: real time    0.6414
       DOS:  cpu time    0.0600: real time    0.0152
    CHARGE:  cpu time    1.5960: real time    0.3989
    MIXING:  cpu time    2.1000: real time    0.5256
    --------------------------------------------
      LOOP:  cpu time   10.9640: real time    2.7450

 eigenvalue-minimisations  :    64
 total energy-change (2. order) :-0.2533645E+01  (-0.3687202E+01)
 number of electron      13.0000088 magnetization 
 augmentation part        1.0925425 magnetization 

 Broyden mixing:
  rms(total) = 0.53464E+00    rms(broyden)= 0.52909E+00
  rms(prec ) = 0.62214E+00
  weight for this iteration     100.00

 eigenvalues of (default mixing * dielectric matrix)
  average eigenvalue GAMMA=   0.8543
  0.8543

 Free energy of the ion-electron system (eV)
  ---------------------------------------------------
  alpha Z        PSCENC =         1.26727950
  Ewald energy   TEWEN  =       -31.98523025
  -Hartree energ DENC   =      -720.35623873
  -exchange      EXHF   =         0.00000000
  -V(xc)+E(xc)   XCENC  =        55.70616525
  PAW double counting   =       896.77084455     -900.36398353
  entropy T*S    EENTRO =        -0.05641928
  eigenvalues    EBANDS =      -187.36294504
  atomic energy  EATOM  =       877.00502474
  Solvation  Ediel_sol  =         0.00000000
  ---------------------------------------------------
  free energy    TOTEN  =        -9.37550280 eV

  energy without entropy =       -9.31908352  energy(sigma->0) =       -9.34729316


--------------------------------------------------------------------------------------------------------




--------------------------------------- Iteration      2(   3)  ---------------------------------------


    POTLOK:  cpu time    1.6160: real time    0.4031
    SETDIJ:  cpu time    0.0720: real time    0.0190
     EDDAV:  cpu time    1.0400: real time    0.2591
       DOS:  cpu time    0.0280: real time    0.0073
    CHARGE:  cpu time    0.7800: real time    0.1950
    MIXING:  cpu time    0.9760: real time    0.2445
    --------------------------------------------
      LOOP:  cpu time    4.5120: real time    1.1280

 eigenvalue-minimisations  :    32
 total energy-change (2. order) : 0.9955496E-01  (-0.3745709E-01)
 number of electron      13.0000087 magnetization 
 augmentation part        1.0627822 magnetization 

 Broyden mixing:
  rms(total) = 0.31552E+00    rms(broyden)= 0.31530E+00
  rms(prec ) = 0.35893E+00
  weight for this iteration     100.00

 eigenvalues of (default mixing * dielectric matrix)
  average eigenvalue GAMMA=   1.5712
  0.9150  2.2274

 Free energy of the ion-electron system (eV)
  ---------------------------------------------------
  alpha Z        PSCENC =         1.26727950
  Ewald energy   TEWEN  =       -31.98523025
  -Hartree energ DENC   =      -724.67209472
  -exchange      EXHF   =         0.00000000
  -V(xc)+E(xc)   XCENC  =        55.97554877
  PAW double counting   =       859.61456804     -863.23263196
  entropy T*S    EENTRO =        -0.05646323
  eigenvalues    EBANDS =      -183.19194872
  atomic energy  EATOM  =       877.00502474
  Solvation  Ediel_sol  =         0.00000000
  ---------------------------------------------------
  free energy    TOTEN  =        -9.27594784 eV

  energy without entropy =       -9.21948461  energy(sigma->0) =       -9.24771622


--------------------------------------------------------------------------------------------------------




--------------------------------------- Iteration      2(   4)  ---------------------------------------


    POTLOK:  cpu time    4.1200: real time    1.0295
    SETDIJ:  cpu time    0.0640: real time    0.0160
     EDDAV:  cpu time    1.1320: real time    0.2828
       DOS:  cpu time    0.0320: real time    0.0087
    CHARGE:  cpu time    0.8000: real time    0.1995
    MIXING:  cpu time    0.1120: real time    0.0283
    --------------------------------------------
      LOOP:  cpu time    6.2600: real time    1.5648

 eigenvalue-minimisations  :    32
 total energy-change (2. order) :-0.9477640E-01  (-0.3236554E-01)
 number of electron      13.0000088 magnetization 
 augmentation part        1.0376006 magnetization 

 Broyden mixing:
  rms(total) = 0.69803E-01    rms(broyden)= 0.68774E-01
  rms(prec ) = 0.89297E-01
  weight for this iteration     100.00

 eigenvalues of (default mixing * dielectric matrix)
  average eigenvalue GAMMA=   1.4198
  2.2960  0.9816  0.9816

 Free energy of the ion-electron system (eV)
  ---------------------------------------------------
  alpha Z        PSCENC =         1.26727950
  Ewald energy   TEWEN  =       -31.98523025
  -Hartree energ DENC   =      -727.80344374
  -exchange      EXHF   =         0.00000000
  -V(xc)+E(xc)   XCENC  =        56.12366179
  PAW double counting   =       791.59985463     -795.13296948
  entropy T*S    EENTRO =        -0.06592170
  eigenvalues    EBANDS =      -180.37897972
  atomic energy  EATOM  =       877.00502474
  Solvation  Ediel_sol  =         0.00000000
  ---------------------------------------------------
  free energy    TOTEN  =        -9.37072424 eV

  energy without entropy =       -9.30480253  energy(sigma->0) =       -9.33776339


--------------------------------------------------------------------------------------------------------




--------------------------------------- Iteration      2(   5)  ---------------------------------------


    POTLOK:  cpu time    1.1880: real time    0.2970
    SETDIJ:  cpu time    0.9720: real time    0.2426
     EDDAV:  cpu time    4.0840: real time    1.0215
       DOS:  cpu time    0.0600: real time    0.0150
    CHARGE:  cpu time    0.8080: real time    0.2020
    MIXING:  cpu time    0.1120: real time    0.0274
    --------------------------------------------
      LOOP:  cpu time    7.2200: real time    1.8055

 eigenvalue-minimisations  :    32
 total energy-change (2. order) : 0.1926898E-02  (-0.3111090E-02)
 number of electron      13.0000088 magnetization 
 augmentation part        1.0458217 magnetization 

 Broyden mixing:
  rms(total) = 0.19419E-01    rms(broyden)= 0.19316E-01
  rms(prec ) = 0.25303E-01
  weight for this iteration     100.00

 eigenvalues of (default mixing * dielectric matrix)
  average eigenvalue GAMMA=   1.4363
  2.4929  0.9595  0.9595  1.3333

 Free energy of the ion-electron system (eV)
  ---------------------------------------------------
  alpha Z        PSCENC =         1.26727950
  Ewald energy   TEWEN  =       -31.98523025
  -Hartree energ DENC   =      -726.27660522
  -exchange      EXHF   =         0.00000000
  -V(xc)+E(xc)   XCENC  =        56.02017238
  PAW double counting   =       781.77399660     -785.25785925
  entropy T*S    EENTRO =        -0.06261418
  eigenvalues    EBANDS =      -181.85296165
  atomic energy  EATOM  =       877.00502474
  Solvation  Ediel_sol  =         0.00000000
  ---------------------------------------------------
  free energy    TOTEN  =        -9.36879734 eV

  energy without entropy =       -9.30618315  energy(sigma->0) =       -9.33749025


--------------------------------------------------------------------------------------------------------




--------------------------------------- Iteration      2(   6)  ---------------------------------------


    POTLOK:  cpu time    0.7160: real time    0.1797
    SETDIJ:  cpu time    0.0960: real time    0.0233
     EDDAV:  cpu time    5.0240: real time    1.2608
       DOS:  cpu time    0.0440: real time    0.0113
    CHARGE:  cpu time    0.9040: real time    0.2253
    MIXING:  cpu time    0.9920: real time    0.2512
    --------------------------------------------
      LOOP:  cpu time    7.7760: real time    1.9516

 eigenvalue-minimisations  :    32
 total energy-change (2. order) :-0.1414164E-02  (-0.5276736E-03)
 number of electron      13.0000088 magnetization 
 augmentation part        1.0490748 magnetization 

 Broyden mixing:
  rms(total) = 0.71641E-02    rms(broyden)= 0.71005E-02
  rms(prec ) = 0.10489E-01
  weight for this iteration     100.00

 eigenvalues of (default mixing * dielectric matrix)
  average eigenvalue GAMMA=   1.4649
  2.5263  1.7441  1.1172  1.1172  0.8197

 Free energy of the ion-electron system (eV)
  ---------------------------------------------------
  alpha Z        PSCENC =         1.26727950
  Ewald energy   TEWEN  =       -31.98523025
  -Hartree energ DENC   =      -725.68444482
  -exchange      EXHF   =         0.00000000
  -V(xc)+E(xc)   XCENC  =        55.98225295
  PAW double counting   =       776.93785321     -780.40321976
  entropy T*S    EENTRO =        -0.06264071
  eigenvalues    EBANDS =      -182.42708636
  atomic energy  EATOM  =       877.00502474
  Solvation  Ediel_sol  =         0.00000000
  ---------------------------------------------------
  free energy    TOTEN  =        -9.37021150 eV

  energy without entropy =       -9.30757079  energy(sigma->0) =       -9.33889115


--------------------------------------------------------------------------------------------------------




--------------------------------------- Iteration      2(   7)  ---------------------------------------


    POTLOK:  cpu time    0.8760: real time    0.2189
    SETDIJ:  cpu time    0.0760: real time    0.0188
     EDDAV:  cpu time    5.0000: real time    1.2508
       DOS:  cpu time    0.0320: real time    0.0071
    CHARGE:  cpu time    0.7640: real time    0.1913
    MIXING:  cpu time    0.1200: real time    0.0301
    --------------------------------------------
      LOOP:  cpu time    6.8680: real time    1.7171

 eigenvalue-minimisations  :    32
 total energy-change (2. order) :-0.5054075E-03  (-0.5803761E-04)
 number of electron      13.0000088 magnetization 
 augmentation part        1.0479263 magnetization 

 Broyden mixing:
  rms(total) = 0.14912E-02    rms(broyden)= 0.14781E-02
  rms(prec ) = 0.41351E-02
  weight for this iteration     100.00

 eigenvalues of (default mixing * dielectric matrix)
  average eigenvalue GAMMA=   1.4221
  2.5723  1.9632  1.1010  1.1010  0.9644  0.8307

 Free energy of the ion-electron system (eV)
  ---------------------------------------------------
  alpha Z        PSCENC =         1.26727950
  Ewald energy   TEWEN  =       -31.98523025
  -Hartree energ DENC   =      -725.81608348
  -exchange      EXHF   =         0.00000000
  -V(xc)+E(xc)   XCENC  =        55.99290838
  PAW double counting   =       777.07842411     -780.54804498
  entropy T*S    EENTRO =        -0.06254551
  eigenvalues    EBANDS =      -182.30244942
  atomic energy  EATOM  =       877.00502474
  Solvation  Ediel_sol  =         0.00000000
  ---------------------------------------------------
  free energy    TOTEN  =        -9.37071691 eV

  energy without entropy =       -9.30817140  energy(sigma->0) =       -9.33944415


--------------------------------------------------------------------------------------------------------




--------------------------------------- Iteration      2(   8)  ---------------------------------------


    POTLOK:  cpu time    0.9400: real time    0.2350
    SETDIJ:  cpu time    0.0880: real time    0.0221
     EDDAV:  cpu time    3.5160: real time    0.8785
       DOS:  cpu time    0.0320: real time    0.0087
    CHARGE:  cpu time    2.0040: real time    0.5002
    MIXING:  cpu time    0.1080: real time    0.0273
    --------------------------------------------
      LOOP:  cpu time    6.6880: real time    1.6718

 eigenvalue-minimisations  :    32
 total energy-change (2. order) :-0.2707112E-03  (-0.3074942E-05)
 number of electron      13.0000088 magnetization 
 augmentation part        1.0479516 magnetization 

 Broyden mixing:
  rms(total) = 0.96790E-03    rms(broyden)= 0.96648E-03
  rms(prec ) = 0.29224E-02
  weight for this iteration     100.00

 eigenvalues of (default mixing * dielectric matrix)
  average eigenvalue GAMMA=   1.5810
  2.8670  2.5208  1.6681  1.1071  1.1071  0.9726  0.8241

 Free energy of the ion-electron system (eV)
  ---------------------------------------------------
  alpha Z        PSCENC =         1.26727950
  Ewald energy   TEWEN  =       -31.98523025
  -Hartree energ DENC   =      -725.75526393
  -exchange      EXHF   =         0.00000000
  -V(xc)+E(xc)   XCENC  =        55.99080869
  PAW double counting   =       777.05426945     -780.52359265
  entropy T*S    EENTRO =        -0.06253006
  eigenvalues    EBANDS =      -182.36175311
  atomic energy  EATOM  =       877.00502474
  Solvation  Ediel_sol  =         0.00000000
  ---------------------------------------------------
  free energy    TOTEN  =        -9.37098762 eV

  energy without entropy =       -9.30845756  energy(sigma->0) =       -9.33972259


--------------------------------------------------------------------------------------------------------




--------------------------------------- Iteration      2(   9)  ---------------------------------------


    POTLOK:  cpu time    0.9400: real time    0.2352
    SETDIJ:  cpu time    0.0760: real time    0.0190
     EDDAV:  cpu time    1.4000: real time    0.3504
       DOS:  cpu time    0.6840: real time    0.1705
    CHARGE:  cpu time    2.2560: real time    0.5646
    MIXING:  cpu time    1.3160: real time    0.3871
    --------------------------------------------
      LOOP:  cpu time    6.6720: real time    1.7269

 eigenvalue-minimisations  :    32
 total energy-change (2. order) :-0.3236652E-03  (-0.9126385E-05)
 number of electron      13.0000088 magnetization 
 augmentation part        1.0481135 magnetization 

 Broyden mixing:
  rms(total) = 0.68181E-03    rms(broyden)= 0.68123E-03
  rms(prec ) = 0.12415E-02
  weight for this iteration     100.00

 eigenvalues of (default mixing * dielectric matrix)
  average eigenvalue GAMMA=   1.6500
  3.1969  2.5726  1.9947  0.8270  1.0018  1.1053  1.1053  1.3965

 Free energy of the ion-electron system (eV)
  ---------------------------------------------------
  alpha Z        PSCENC =         1.26727950
  Ewald energy   TEWEN  =       -31.98523025
  -Hartree energ DENC   =      -725.62711522
  -exchange      EXHF   =         0.00000000
  -V(xc)+E(xc)   XCENC  =        55.98589097
  PAW double counting   =       777.22497706     -780.69390545
  entropy T*S    EENTRO =        -0.06254341
  eigenvalues    EBANDS =      -182.48568922
  atomic energy  EATOM  =       877.00502474
  Solvation  Ediel_sol  =         0.00000000
  ---------------------------------------------------
  free energy    TOTEN  =        -9.37131129 eV

  energy without entropy =       -9.30876787  energy(sigma->0) =       -9.34003958


--------------------------------------------------------------------------------------------------------




--------------------------------------- Iteration      2(  10)  ---------------------------------------


    POTLOK:  cpu time    0.9280: real time    0.2320
    SETDIJ:  cpu time    0.0600: real time    0.0151
     EDDAV:  cpu time    1.5440: real time    0.3860
       DOS:  cpu time    0.0360: real time    0.0096
    CHARGE:  cpu time    1.2680: real time    0.3170
    MIXING:  cpu time    1.5680: real time    0.3962
    --------------------------------------------
      LOOP:  cpu time    5.4040: real time    1.3559

 eigenvalue-minimisations  :    32
 total energy-change (2. order) :-0.1066008E-03  (-0.2055308E-05)
 number of electron      13.0000088 magnetization 
 augmentation part        1.0480385 magnetization 

 Broyden mixing:
  rms(total) = 0.27770E-03    rms(broyden)= 0.27423E-03
  rms(prec ) = 0.49388E-03
  weight for this iteration     100.00

 eigenvalues of (default mixing * dielectric matrix)
  average eigenvalue GAMMA=   1.8491
  5.0765  2.6224  2.3565  1.6374  0.8236  1.0922  1.0922  0.9704  0.9704

 Free energy of the ion-electron system (eV)
  ---------------------------------------------------
  alpha Z        PSCENC =         1.26727950
  Ewald energy   TEWEN  =       -31.98523025
  -Hartree energ DENC   =      -725.62646695
  -exchange      EXHF   =         0.00000000
  -V(xc)+E(xc)   XCENC  =        55.98640306
  PAW double counting   =       777.26442266     -780.73355027
  entropy T*S    EENTRO =        -0.06257134
  eigenvalues    EBANDS =      -182.48672904
  atomic energy  EATOM  =       877.00502474
  Solvation  Ediel_sol  =         0.00000000
  ---------------------------------------------------
  free energy    TOTEN  =        -9.37141789 eV

  energy without entropy =       -9.30884655  energy(sigma->0) =       -9.34013222


--------------------------------------------------------------------------------------------------------




--------------------------------------- Iteration      2(  11)  ---------------------------------------


    POTLOK:  cpu time    3.1680: real time    0.7915
    SETDIJ:  cpu time    0.0680: real time    0.0175
     EDDAV:  cpu time    1.4840: real time    0.3711
       DOS:  cpu time    0.0640: real time    0.0154
    --------------------------------------------
      LOOP:  cpu time    4.7840: real time    1.1956

 eigenvalue-minimisations  :    32
 total energy-change (2. order) :-0.2167490E-04  (-0.2289817E-06)
 number of electron      13.0000088 magnetization 
 augmentation part        1.0480385 magnetization 

 Free energy of the ion-electron system (eV)
  ---------------------------------------------------
  alpha Z        PSCENC =         1.26727950
  Ewald energy   TEWEN  =       -31.98523025
  -Hartree energ DENC   =      -725.61873516
  -exchange      EXHF   =         0.00000000
  -V(xc)+E(xc)   XCENC  =        55.98615143
  PAW double counting   =       777.25234266     -780.72145772
  entropy T*S    EENTRO =        -0.06255084
  eigenvalues    EBANDS =      -182.49426391
  atomic energy  EATOM  =       877.00502474
  Solvation  Ediel_sol  =         0.00000000
  ---------------------------------------------------
  free energy    TOTEN  =        -9.37143956 eV

  energy without entropy =       -9.30888872  energy(sigma->0) =       -9.34016414


--------------------------------------------------------------------------------------------------------




 average (electrostatic) potential at core
  the test charge radii are     0.5201  0.7215
  (the norm of the test charge is              1.0000)
       1 -43.8871       2 -83.0194       3 -83.0194
 
 
 
 E-fermi :  -7.8899     XC(G=0):  -1.3125     alpha+bet : -0.3547


 k-point     1 :       0.0000    0.0000    0.0000
  band No.  band energies     occupation 
      1     -25.3176      2.00000
      2     -22.8489      2.00000
      3     -12.2177      2.00000
      4      -9.7189      2.00000
      5      -9.1616      2.00000
      6      -8.0386      1.96449
      7      -7.8930      1.03551
      8      -6.9069      0.00000
      9      -1.0331      0.00000
     10       0.6451      0.00000
     11       1.8234      0.00000
     12       1.8938      0.00000
     13       1.9239      0.00000
     14       1.9576      0.00000
     15       2.0498      0.00000
     16       3.0230      0.00000


--------------------------------------------------------------------------------------------------------


 soft charge-density along one line, spin component           1
         0         1         2         3         4         5         6         7         8         9
 total charge-density along one line
 
 pseudopotential strength for first ion, spin component:           1
 -2.385  -4.117  -0.000   0.000  -0.001
 -4.117  -7.020  -0.000   0.000  -0.003
 -0.000  -0.000  -0.333   0.000   0.000
  0.000   0.000   0.000  -0.334  -0.000
 -0.001  -0.003   0.000  -0.000  -0.333
 total augmentation occupancy for first ion, spin component:           1
  2.618  -0.596   0.000   0.000   0.214
 -0.596   0.158   0.000   0.000  -0.053
  0.000   0.000   0.054   0.000   0.000
  0.000   0.000   0.000   0.010   0.000
  0.214  -0.053   0.000   0.000   0.025


------------------------ aborting loop because EDIFF is reached ----------------------------------------


    CHARGE:  cpu time    2.7000: real time    0.6788
    FORLOC:  cpu time    0.4160: real time    0.1028
    FORNL :  cpu time    1.6800: real time    0.4200
    STRESS:  cpu time    0.5920: real time    0.1482
    FORCOR:  cpu time    0.6720: real time    0.1681
    FORHAR:  cpu time    0.4240: real time    0.1051
    MIXING:  cpu time    0.4800: real time    0.1206
    OFIELD:  cpu time    0.0040: real time    0.0003

  FORCE on cell =-STRESS in cart. coord.  units (eV):
  Direction    XX          YY          ZZ          XY          YZ          ZX
  --------------------------------------------------------------------------------------
  Alpha Z     1.26728     1.26728     1.26728
  Ewald     -90.81033   207.95761  -149.13260     0.00000     0.00000     0.00000
  Hartree   180.98098   389.62525   155.00869    -0.00000    -0.00000    -0.00000
  E(xc)     -59.56146   -59.34475   -60.02371    -0.00000     0.00000    -0.00000
  Local    -280.16515  -748.16128  -189.33600    -0.00000    -0.00000     0.00000
  n-local   -49.60022   -38.11203   -45.12140     0.00000     0.00000     0.00000
  augment    13.73011     8.28832    12.13137    -0.00000     0.00000     0.00000
  Kinetic   280.65637   227.29413   273.58281     0.00000     0.00000    -0.00000
  Fock        0.00000     0.00000     0.00000     0.00000     0.00000     0.00000
  -------------------------------------------------------------------------------------
  Total      -3.50242   -11.18547    -1.62355     0.00000     0.00000     0.00000
  in kB     -11.22004   -35.83280    -5.20108     0.00000     0.00000     0.00000
  external pressure =      -17.42 kB  Pullay stress =        0.00 kB


 VOLUME and BASIS-vectors are now :
 -----------------------------------------------------------------------------
  energy-cutoff  :      400.00
  volume of cell :      500.13
      direct lattice vectors                 reciprocal lattice vectors
     7.937700000  0.000000000  0.000000000     0.125981078  0.000000000  0.000000000
     0.000000000  7.937700000  0.000000000     0.000000000  0.125981078  0.000000000
     0.000000000  0.000000000  7.937700000     0.000000000  0.000000000  0.125981078

  length of vectors
     7.937700000  7.937700000  7.937700000     0.125981078  0.125981078  0.125981078


 FORCES acting on ions
    electron-ion (+dipol)            ewald-force                    non-local-force                 convergence-correction
 -----------------------------------------------------------------------------------------------
   0.639E+02 0.180E-14 -.104E-14   -.643E+02 -.711E-14 0.488E-17   0.238E+01 -.160E-28 -.360E-29   0.270E-03 0.172E-14 -.541E-14
   -.219E+02 0.143E+03 -.184E-04   0.321E+02 -.158E+03 0.307E-16   -.113E+02 0.202E+02 -.235E-26   0.269E-02 0.113E-02 -.676E-13
   -.219E+02 -.143E+03 -.193E-04   0.321E+02 0.158E+03 0.542E-16   -.113E+02 -.202E+02 0.235E-26   0.269E-02 -.113E-02 -.304E-13
 -----------------------------------------------------------------------------------------------
   0.202E+02 -.990E-13 -.377E-04   0.000E+00 0.000E+00 0.897E-16   -.202E+02 -.355E-14 -.540E-29   0.566E-02 0.788E-13 -.103E-12
 
 
 POSITION                                       TOTAL-FORCE (eV/Angst)
 -----------------------------------------------------------------------------------
      0.00000      0.00000      0.00000         2.058012     -0.000000      0.000000
      0.87026      6.94608      0.00000        -1.029006      5.066867     -0.000000
      0.87026      0.99162      0.00000        -1.029006     -5.066867      0.000000
 -----------------------------------------------------------------------------------
    total drift:                                0.003046     -0.000000     -0.000038


[...]
   28      set_dd_paw                            4.032784                            166   2
   29        set_rsgf_all                          0.001192                          166   3
   30      eddav                               112.302730                            160   2
   31        phase                                 0.001121                          160   3
   32        redis_proj                           23.845945                         2068   3
   33        redis_pw                             24.430857                         1711   3
   34        w1_copy                               1.272052                         1551   3
   35        fftwav_mpi                           17.089271                          517   3
   36          fftwav                               17.077886                        517   4
   37            fft3d                                16.629581                      517   5
   38        eccp                                  0.188039                          160   3
   39        truncate_high_frequency_w1            0.004288                          677   3
   40        setup_precond                         0.038883                          160   3
   41        hamiltmu                             18.019375                          517   3
   42          vhamil                                0.405574                        517   4
   43          overl1                                0.230830                        517   4
   44          vnlac0                                0.790944                        517   4
   45            gemm                                  0.552845                     1551   5
   46            work_mul_crexp                        0.177649                     1551   5
   47          kinhamil                             16.513260                        517   4
   48            fftext_mpi                           16.461750                      517   5
   49              fft3d_mpi                            16.105476                    517   6
   50                fft3d                                16.092583                  517   7
   51        overl                                 0.300932                          874   3
   52        orth1                                 3.029844                         1391   3
   53        apply_precond                         0.342551                          357   3
   54        w1_projall                            0.287156                          357   3
   55          proj1                                 0.278213                        357   4
   56      set_charge                           57.508007                            146   2
   57        soft_charge                          25.387085                          146   3
   58          fftwav_mpi                            5.326298                        146   4
   59            fftwav                                5.323037                      146   5
   60              fft3d                                 4.762872                    146   6
   61          pw_charge                             0.094767                        146   4
   62          fft3d_mpi                            10.481708                        146   4
   63            fftbas_plan_mpi                      10.296869                      146   5
   64              dfftw_execute                         0.546198                    438   6
   65              map_backward                          9.377918                    292   6
   66                map_gather                            0.194225                  292   7
   67                m_alltoallv_z                         8.549355                  292   7
   68                map_scatter                           0.618029                  292   7
   69        depsum                                2.704857                          146   3
   70        fft3d_mpi                            10.947530                          146   3
   71          fftbas_plan_mpi                      10.925962                        146   4
   72            dfftw_execute                         0.660829                      438   5
   73            map_backward                          9.972898                      292   5
   74              map_gather                            0.126210                    146   6
   75              m_alltoallv_z                         9.287580                    146   6
   76              map_scatter                           0.548977                    146   6
   77      brmix                                34.072265                            146   2
   78        brpre                                 0.631164                          146   3
   79        setg0                                 1.012343                          156   3
   80        broyd                                15.880757                          146   3
   81          brsav                                 0.024939                       2309   4
   82          brget                                 0.120369                       9039   4
   83      force_and_stress                     18.003895                             10   2
   84        set_charge                            4.569845                           10   3
   85          soft_charge                           2.033769                         10   4
   86            fftwav_mpi                            0.383310                       10   5
   87              fftwav                                0.383087                     10   6
   88                fft3d                                 0.333469                   10   7
   89            pw_charge                             0.002134                       10   5
   90            fft3d_mpi                             1.177404                       10   5
   91              fftbas_plan_mpi                       1.164872                     10   6
   92                dfftw_execute                         0.038934                   30   7
   93                map_backward                          1.110041                   20   7
   94                  map_gather                            0.034869                 20   8
   95                  m_alltoallv_z                         1.010894                 20   8
   96                  map_scatter                           0.063149                 20   8
   97          depsum                                0.224789                         10   4
   98          fft3d_mpi                             1.010142                         10   4
   99            fftbas_plan_mpi                       1.008668                       10   5
  100              dfftw_execute                         0.132150                     30   6
  101              map_backward                          0.834558                     20   6
  102                map_gather                            0.033104                   10   7
  103                m_alltoallv_z                         0.736710                   10   7
  104                map_scatter                           0.064060                   10   7
  105        forloc                                0.542755                           10   3
  106        fornl                                 0.219775                           10   3
  107          phase                                 0.000061                         10   4
  108        fordep                                1.358834                           10   3
  109          setdij_                               1.302158                         60   4
  110        setdij_                               2.278288                          200   3
  111        set_dd_paw                            0.184313                           10   3
  112          set_rsgf_all                          0.000069                         10   4
  113        strkin                                0.002188                           10   3
  114        strelo                                0.086472                           10   3
  115        strenl                                1.885680                           10   3
  116          spher                                 0.552357                        190   4
  117          phase                                 0.000624                         90   4
  118          proj1                                 0.557696                         90   4
  119        fft3d_mpi                             3.166176                          110   3
  120          fftbas_plan_mpi                       3.150063                        110   4
  121            dfftw_execute                         0.076205                      330   5
  122            map_forward                           1.732080                      100   5
  123              map_gather                            0.006317                     50   6
  124              m_alltoallv_z                         1.659698                     50   6
  125              map_scatter                           0.062698                     50   6
  126            map_backward                          1.247633                      120   5
  127              map_gather                            0.006603                     60   6
  128              m_alltoallv_z                         1.163444                     60   6
  129              map_scatter                           0.073519                     60   6
  130        ggaall_grid                           0.020296                           10   3
  131        forhar                                0.087821                           20   3
  132        strehar                               0.055200                           10   3
  133        chggra                                0.833872                           10   3
  134          fft3d_mpi                             0.691971                         30   4
  135            fftbas_plan_mpi                       0.687580                       30   5
  136              dfftw_execute                         0.021038                     90   6
  137              map_forward                           0.345951                     40   6
  138                map_gather                            0.002468                   20   7
  139                m_alltoallv_z                         0.320578                   20   7
  140                map_scatter                           0.021574                   20   7
  141              map_backward                          0.257749                     20   6
  142                map_gather                            0.001119                   10   7
  143                m_alltoallv_z                         0.245599                   10   7
  144                map_scatter                           0.010382                   10   7
  145        brmix                                 1.857472                           10   3
  146          brpre                                 0.020690                         10   4
  147          setg0                                 0.079509                         10   4
  148          broyd                                 1.067576                         10   4
  149            brsav                                 0.003492                      312   5
  150            brget                                 0.010143                      912   5
 
 Flat profile
 ============
 
             routine name                   CPU           calls
 ---------------------------------------------------------------
 m_alltoallv_z                         101.523253        2944
 total_time                             48.283545           1
 fft3d                                  37.818505        1190
 redis_pw                               24.562113        1731
 redis_proj                             24.505313        2098
 eddav                                  23.452417         160
 set_charge                             19.769681         156
 brmix                                  17.237698         156
 broyd                                  16.789391         156
 soft_charge                             9.955232         156
 map_scatter                             6.387488        2944
 setdij_                                 5.979803         427
 dfftw_execute                           5.775221        7866
 set_dd_paw                              4.215835         176
 fftbas_plan_mpi                         3.953303        2622
 orth1                                   3.046217        1401
 depsum                                  2.929645         156
 w1_copy                                 1.272052        1551
 setg0                                   1.091852         166
 map_gather                              1.062906        2944
 fftwav                                  1.058088         673
 proj1                                   0.915571         457
 force_and_stress                        0.854909          10
 strenl                                  0.775003          10
 fft3d_mpi                               0.740811        3139
 brpre                                   0.651854         156
 spher                                   0.558751         191
 gemm                                    0.552845        1551
 forloc                                  0.542755          10
 vhamil                                  0.405574         517
 fftext_mpi                              0.356274         517
 apply_precond                           0.342551         357
 ggaall_grid                             0.323152         176
 overl                                   0.321223         884
 orthch                                  0.320825          10
 overl1                                  0.230830         517
 fornl                                   0.219714          10
 eccp                                    0.188039         160
 work_mul_crexp                          0.177649        1551
 chggra                                  0.141901          10
 brget                                   0.130512        9951
 map_backward                            0.100561        2756
 pw_charge                               0.096901         156
 map_forward                             0.093372        2488
 forhar                                  0.087821          20
 strelo                                  0.086472          10
 hamiltmu                                0.078768         517
 lincom                                  0.069909          10
 vnlac0                                  0.060450         517
 fordep                                  0.056677          10
 strehar                                 0.055200          10
 kinhamil                                0.051511         517
 brgrid                                  0.044202           1
 setup_precond                           0.038883         160
 brsav                                   0.028431        2621
 phase                                   0.017375         280
 fftwav_mpi                              0.014869         673
 w1_projall                              0.008943         357
 truncate_high_frequency_w1              0.004288         677
 strkin                                  0.002188          10
 set_rsgf_all                            0.001261         176
 choleski                                0.000739          10
 proj                                    0.000289          10
 redis_pw_over_bands                     0.000062          10
 ---------------------------------------------------------------
  summed up times    370.419466972351     
 
 Accumulative profile
 ====================
 
             routine name                   CPU           calls
 ---------------------------------------------------------------
 total_time                            370.419467           1
 fft3d_mpi                             135.729497        3139
 fftbas_plan_mpi                       118.896103        2622
 eddav                                 112.302730         160
 m_alltoallv_z                         101.523253        2944
 set_charge                             62.077852         156
 map_backward                           59.768066        2756
 map_forward                            49.399514        2488
 fft3d                                  37.818505        1190
 brmix                                  35.929737         156
 soft_charge                            27.420854         156
 redis_pw                               24.562113        1731
 redis_proj                             24.505313        2098
 fftwav_mpi                             22.798879         673
 fftwav                                 22.784011         673
 hamiltmu                               18.019375         517
 force_and_stress                       18.003895          10
 broyd                                  16.948334         156
 kinhamil                               16.513260         517
 fftext_mpi                             16.461750         517
 map_scatter                             6.387488        2944
 setdij_                                 5.979803         427
 dfftw_execute                           5.775221        7866
 set_dd_paw                              4.217097         176
 orth1                                   3.046217        1401
 depsum                                  2.929645         156
 strenl                                  1.885680          10
 fordep                                  1.358834          10
 w1_copy                                 1.272052        1551
 orthch                                  1.218761          10
 setg0                                   1.091852         166
 map_gather                              1.062906        2944
 proj1                                   0.915571         457
 chggra                                  0.833872          10
 vnlac0                                  0.790944         517
 brpre                                   0.651854         156
 spher                                   0.558751         191
 gemm                                    0.552845        1551
 forloc                                  0.542755          10
 vhamil                                  0.405574         517
 apply_precond                           0.342551         357
 ggaall_grid                             0.323152         176
 overl                                   0.321223         884
 w1_projall                              0.287156         357
 overl1                                  0.230830         517
 fornl                                   0.219775          10
 eccp                                    0.188039         160
 work_mul_crexp                          0.177649        1551
 brget                                   0.130512        9951
 pw_charge                               0.096901         156
 forhar                                  0.087821          20
 strelo                                  0.086472          10
 proj                                    0.079951          10
 lincom                                  0.069909          10
 strehar                                 0.055200          10
 brgrid                                  0.044202           1
 setup_precond                           0.038883         160
 brsav                                   0.028431        2621
 phase                                   0.017375         280
 truncate_high_frequency_w1              0.004288         677
 strkin                                  0.002188          10
 set_rsgf_all                            0.001261         176
 choleski                                0.000739          10
 redis_pw_over_bands                     0.000062          10
 ---------------------------------------------------------------
 
Profiling took   0.308604  0.351458  0.017283  0.016183 seconds
Profiling took   0.310423 seconds
