Starting Cobalt job script
/soft/applications/vasp/vasp6-dev/bin/vasp_std
 ----------------------------------------------------
    OOO  PPPP  EEEEE N   N M   M PPPP
   O   O P   P E     NN  N MM MM P   P
   O   O PPPP  EEEEE N N N M M M PPPP   -- VERSION
   O   O P     E     N  NN M   M P
    OOO  P     EEEEE N   N M   M P
 ----------------------------------------------------
 running   64 mpi-ranks, with    4 threads/rank
 distrk:  each k-point on   64 cores,    1 groups
 distr:  one band on    1 cores,   64 groups
 using from now: INCAR     
 vasp.5.4.4 18Apr17 (build Sep 25 2018 18:50:45) complex                        
  
 POSCAR found :  2 types and       3 ions
 scaLAPACK will be used
 LDA part: xc-table for Pade appr. of Perdew
 POSCAR, INCAR and KPOINTS ok, starting setup
 FFT: planning ...
 WAVECAR not read
 entering main loop
       N       E                     dE             d eps       ncg     rms          rms(c)
DAV:   1     0.555654196185E+02    0.55565E+02   -0.36643E+03   128   0.948E+01
DAV:   2    -0.995711307344E+01   -0.65523E+02   -0.65523E+02   192   0.287E+01
DAV:   3    -0.102428508307E+02   -0.28574E+00   -0.28574E+00   128   0.303E+00
DAV:   4    -0.102433594651E+02   -0.50863E-03   -0.50864E-03   192   0.135E-01
DAV:   5    -0.102433595294E+02   -0.64304E-07   -0.63502E-07   128   0.146E-03    0.695E+00
DAV:   6    -0.967851970130E+01    0.56484E+00   -0.78338E-01   192   0.114E+00    0.363E+00
DAV:   7    -0.956807579271E+01    0.11044E+00   -0.28419E-01   192   0.699E-01    0.978E-01
DAV:   8    -0.956432588111E+01    0.37499E-02   -0.18814E-02   192   0.239E-01    0.988E-02
DAV:   9    -0.956564657647E+01   -0.13207E-02   -0.17238E-03   192   0.501E-02    0.532E-02
DAV:  10    -0.956752497590E+01   -0.18784E-02   -0.35576E-04   128   0.274E-02    0.286E-02
DAV:  11    -0.956948418947E+01   -0.19592E-02   -0.37002E-04   192   0.177E-02    0.137E-02
DAV:  12    -0.957060514162E+01   -0.11210E-02   -0.15182E-04   192   0.104E-02    0.521E-03
DAV:  13    -0.957085869129E+01   -0.25355E-03   -0.18626E-05   192   0.404E-03    0.279E-03
DAV:  14    -0.957098963559E+01   -0.13094E-03   -0.10869E-05   192   0.288E-03    0.968E-04
DAV:  15    -0.957100666771E+01   -0.17032E-04   -0.65275E-07   192   0.778E-04
   1 F= -.95710067E+01 E0= -.95427455E+01  d E =-.957101E+01
 BRION: g(F)=  0.573E+01 g(S)=  0.000E+00
 bond charge predicted
       N       E                     dE             d eps       ncg     rms          rms(c)
DAV:   1    -0.907861205466E+01    0.49238E+00   -0.13332E+03   128   0.540E+01    0.849E+00
DAV:   2    -0.923600447613E+01   -0.15739E+00   -0.64525E+00   128   0.430E+00    0.430E+00
DAV:   3    -0.932266378126E+01   -0.86659E-01   -0.20014E-01   192   0.693E-01    0.167E+00
DAV:   4    -0.936804384482E+01   -0.45380E-01   -0.22921E-02   192   0.242E-01    0.271E-01
DAV:   5    -0.937018633989E+01   -0.21425E-02   -0.31585E-03   192   0.780E-02    0.556E-02
DAV:   6    -0.937060650641E+01   -0.42017E-03   -0.91030E-05   192   0.154E-02    0.249E-02
DAV:   7    -0.937098650036E+01   -0.37999E-03   -0.55600E-05   192   0.850E-03    0.779E-03
DAV:   8    -0.937120367956E+01   -0.21718E-03   -0.34873E-05   192   0.542E-03    0.596E-03
DAV:   9    -0.937135674989E+01   -0.15307E-03   -0.40081E-05   192   0.541E-03    0.218E-03
DAV:  10    -0.937137706295E+01   -0.20313E-04   -0.16738E-06   192   0.133E-03
   2 F= -.93713771E+01 E0= -.93400973E+01  d E =0.199630E+00
 BRION: g(F)=  0.258E+01 g(S)=  0.000E+00 retain N=  1 mean eig= 0.61
 eig:   0.611
 bond charge predicted
       N       E                     dE             d eps       ncg     rms          rms(c)
DAV:   1    -0.108087780682E+02   -0.14374E+01   -0.25778E+02   128   0.250E+01    0.388E+00
DAV:   2    -0.107769379221E+02    0.31840E-01   -0.59256E-01   192   0.153E+00    0.195E+00
DAV:   3    -0.107898482371E+02   -0.12910E-01   -0.99215E-02   192   0.428E-01    0.433E-01
DAV:   4    -0.107900494261E+02   -0.20119E-03   -0.14458E-02   192   0.144E-01    0.163E-01
DAV:   5    -0.107906107606E+02   -0.56133E-03   -0.35772E-04   192   0.291E-02    0.372E-02
DAV:   6    -0.107908138050E+02   -0.20304E-03   -0.69279E-05   192   0.102E-02    0.856E-03
DAV:   7    -0.107910029135E+02   -0.18911E-03   -0.16532E-05   192   0.471E-03    0.344E-03
DAV:   8    -0.107911038324E+02   -0.10092E-03   -0.57322E-06   192   0.194E-03    0.232E-03
DAV:   9    -0.107912195418E+02   -0.11571E-03   -0.16135E-05   128   0.304E-03    0.879E-04
DAV:  10    -0.107912405345E+02   -0.20993E-04   -0.10091E-06   192   0.841E-04
   3 F= -.10791241E+02 E0= -.10762715E+02  d E =-.141986E+01
 BRION: g(F)=  0.139E+01 g(S)=  0.000E+00 retain N=  2 mean eig=84.34
 eig:   0.614168.064
 bond charge predicted
       N       E                     dE             d eps       ncg     rms          rms(c)
DAV:   1    -0.505871591738E+00    0.10285E+02   -0.51668E+03   128   0.717E+01    0.978E+00
DAV:   2    -0.182235998718E+01   -0.13165E+01   -0.38665E+01   128   0.874E+00    0.888E+00
DAV:   3    -0.170516496939E+01    0.11720E+00   -0.32511E+00   128   0.102E+00    0.495E+00
DAV:   4    -0.189628872443E+01   -0.19112E+00   -0.58482E-01   128   0.477E-01    0.215E+00
DAV:   5    -0.199877889997E+01   -0.10249E+00   -0.30291E-01   192   0.273E-01    0.180E+00
DAV:   6    -0.214544173573E+01   -0.14666E+00   -0.13050E-01   192   0.375E-01    0.539E-01
DAV:   7    -0.215931256986E+01   -0.13871E-01   -0.20645E-02   128   0.153E-01    0.358E-01
DAV:   8    -0.216072643510E+01   -0.14139E-02   -0.21558E-02   192   0.654E-02    0.278E-01
DAV:   9    -0.216064719668E+01    0.79238E-04   -0.96001E-04   128   0.195E-02
   4 F= -.21606472E+01 E0= -.20758195E+01  d E =0.863059E+01
 BRION: g(F)=  0.523E-01 g(S)=  0.000E+00 retain N=  2 mean eig=18.98
 eig:   1.914 36.044
 bond charge predicted
       N       E                     dE             d eps       ncg     rms          rms(c)
DAV:   1    -0.220016104569E+01   -0.39435E-01   -0.43129E+02   128   0.319E+01    0.453E+00
DAV:   2    -0.215557034875E+01    0.44591E-01   -0.14787E+00   128   0.217E+00    0.251E+00
DAV:   3    -0.279198203039E+01   -0.63641E+00   -0.71113E+00   256   0.446E-01    0.969E+00
DAV:   4    -0.214557862337E+01    0.64640E+00   -0.10568E+00   192   0.592E-01    0.189E+00
DAV:   5    -0.217506250245E+01   -0.29484E-01   -0.51274E-02   192   0.165E-01    0.126E+00
DAV:   6    -0.219753045399E+01   -0.22468E-01   -0.18880E-01   192   0.903E-02    0.203E+00
DAV:   7    -0.218421352836E+01    0.13317E-01   -0.40703E-02   192   0.784E-02    0.427E-01
DAV:   8    -0.218706130815E+01   -0.28478E-02   -0.22491E-03   192   0.334E-02    0.470E-01
DAV:   9    -0.218723663456E+01   -0.17533E-03   -0.16571E-03   192   0.513E-02    0.281E-01
DAV:  10    -0.218865795849E+01   -0.14213E-02   -0.14874E-03   192   0.257E-02    0.344E-01
DAV:  11    -0.218864544454E+01    0.12514E-04   -0.58811E-04   192   0.112E-02
   5 F= -.21886454E+01 E0= -.20980609E+01  d E =-.279982E-01
 BRION: g(F)=  0.177E+00 g(S)=  0.000E+00 retain N=  2 mean eig=*****
 eig:  11.034205.890
 bond charge predicted
       N       E                     dE             d eps       ncg     rms          rms(c)
DAV:   1    -0.192948724568E+01    0.25917E+00   -0.22785E+03   128   0.670E+01    0.403E+00
DAV:   2    -0.279634999932E+01   -0.86686E+00   -0.77946E+00   128   0.481E+00    0.573E+00
DAV:   3    -0.266507728910E+01    0.13127E+00   -0.47609E-01   256   0.445E-01    0.272E+00
DAV:   4    -0.281328911194E+01   -0.14821E+00   -0.24836E-01   128   0.356E-01    0.236E+00
DAV:   5    -0.287420899714E+01   -0.60920E-01   -0.13344E-01   192   0.494E-01    0.198E+00
DAV:   6    -0.286377881953E+01    0.10430E-01   -0.27725E-02   128   0.115E-01    0.901E-01
DAV:   7    -0.287908260221E+01   -0.15304E-01   -0.76445E-03   128   0.767E-02    0.275E-01
DAV:   8    -0.288976492347E+01   -0.10682E-01   -0.35491E-03   192   0.962E-02    0.256E-01
DAV:   9    -0.289045576558E+01   -0.69084E-03   -0.70583E-04   192   0.171E-02    0.122E-01
DAV:  10    -0.289294605495E+01   -0.24903E-02   -0.13515E-03   192   0.277E-02    0.221E-01
DAV:  11    -0.289402273864E+01   -0.10767E-02   -0.10522E-03   192   0.287E-02    0.750E-02
DAV:  12    -0.289441745265E+01   -0.39471E-03   -0.57028E-05   192   0.143E-02    0.227E-02
DAV:  13    -0.289465305402E+01   -0.23560E-03   -0.26528E-05   192   0.545E-03    0.169E-02
DAV:  14    -0.289469936193E+01   -0.46308E-04   -0.13019E-05   128   0.203E-03
   6 F= -.28946994E+01 E0= -.27835681E+01  d E =-.706054E+00
 BRION: g(F)=  0.243E+00 g(S)=  0.000E+00 retain N=  1 mean eig= 3.55
 eig:   3.551
 bond charge predicted
       N       E                     dE             d eps       ncg     rms          rms(c)
DAV:   1    -0.216266632690E+01    0.73199E+00   -0.83862E+02   128   0.441E+01    0.550E+00
DAV:   2    -0.229210411550E+01   -0.12944E+00   -0.48394E+00   192   0.281E+00    0.595E+00
DAV:   3    -0.214518692765E+01    0.14692E+00   -0.67018E-01   192   0.604E-01    0.148E+00
DAV:   4    -0.222187290098E+01   -0.76686E-01   -0.19709E-02   192   0.226E-01    0.529E-01
DAV:   5    -0.223114717280E+01   -0.92743E-02   -0.77645E-03   192   0.773E-02    0.283E-01
DAV:   6    -0.223384547186E+01   -0.26983E-02   -0.52492E-03   192   0.575E-02    0.231E-01
DAV:   7    -0.223364364314E+01    0.20183E-03   -0.74278E-04   192   0.262E-02    0.142E-01
DAV:   8    -0.223421250230E+01   -0.56886E-03   -0.45463E-04   192   0.146E-02    0.762E-02
DAV:   9    -0.223471340537E+01   -0.50090E-03   -0.20283E-04   192   0.191E-02    0.971E-02
DAV:  10    -0.223522439587E+01   -0.51099E-03   -0.16755E-03   192   0.128E-02    0.285E-01
DAV:  11    -0.223457803100E+01    0.64636E-03   -0.12925E-03   192   0.294E-02    0.692E-02
DAV:  12    -0.223525284656E+01   -0.67482E-03   -0.11808E-04   192   0.218E-02    0.190E-02
DAV:  13    -0.223528835267E+01   -0.35506E-04   -0.71196E-06   192   0.206E-03
   7 F= -.22352884E+01 E0= -.21463981E+01  d E =0.659411E+00
 BRION: g(F)=  0.781E-01 g(S)=  0.000E+00 retain N=  2 mean eig=*****
 eig:   3.412553.013
 bond charge predicted
       N       E                     dE             d eps       ncg     rms          rms(c)
DAV:   1    -0.235160789742E+01   -0.11636E+00   -0.92396E+02   128   0.459E+01    0.460E+00
DAV:   2    -0.263194549044E+01   -0.28034E+00   -0.39413E+00   128   0.287E+00    0.552E+00
DAV:   3    -0.240186883916E+01    0.23008E+00   -0.18877E+00   192   0.376E-01    0.634E+00
DAV:   4    -0.252545994256E+01   -0.12359E+00   -0.38399E+00   192   0.452E-01    0.469E+00
DAV:   5    -0.241870569248E+01    0.10675E+00   -0.49519E-02   192   0.195E-01    0.358E+00
DAV:   6    -0.238712028626E+01    0.31585E-01   -0.16342E-01   192   0.104E-01    0.969E-01
DAV:   7    -0.240801853820E+01   -0.20898E-01   -0.38657E-03   128   0.117E-01    0.383E-01
DAV:   8    -0.241333146520E+01   -0.53129E-02   -0.55685E-03   192   0.603E-02    0.152E+00
DAV:   9    -0.240779908754E+01    0.55324E-02   -0.68019E-03   192   0.531E-02    0.573E-01
DAV:  10    -0.241001524743E+01   -0.22162E-02   -0.24834E-04   128   0.342E-02    0.633E-01
DAV:  11    -0.240987137246E+01    0.14387E-03   -0.15256E-03   192   0.214E-02    0.575E-01
DAV:  12    -0.240964511848E+01    0.22625E-03   -0.37504E-04   192   0.280E-02    0.107E-01
DAV:  13    -0.241003709258E+01   -0.39197E-03   -0.23581E-05   192   0.795E-03    0.135E-01
DAV:  14    -0.241010718750E+01   -0.70095E-04   -0.48209E-05   192   0.358E-03
   8 F= -.24101072E+01 E0= -.23243130E+01  d E =-.174819E+00
 BRION: g(F)=  0.550E+00 g(S)=  0.000E+00 retain N=  2 mean eig=37.83
 eig:  10.509 65.145
 bond charge predicted
       N       E                     dE             d eps       ncg     rms          rms(c)
DAV:   1    -0.242314218725E+01   -0.13105E-01   -0.14851E-01   128   0.593E-01    0.204E-01
DAV:   2    -0.245150398066E+01   -0.28362E-01   -0.82778E-02   128   0.794E-02    0.324E+00
DAV:   3    -0.241415092494E+01    0.37353E-01   -0.52517E-02   192   0.841E-02    0.185E-01
DAV:   4    -0.242237680601E+01   -0.82259E-02   -0.39387E-04   128   0.488E-02    0.620E-02
DAV:   5    -0.242308033530E+01   -0.70353E-03   -0.40158E-05   192   0.148E-02    0.224E-02
DAV:   6    -0.242310521335E+01   -0.24878E-04   -0.41517E-06   192   0.338E-03
   9 F= -.24231052E+01 E0= -.23379585E+01  d E =-.129980E-01
 BRION: g(F)=  0.567E+00 g(S)=  0.000E+00 retain N=  2 mean eig=*****
 eig:   1.868926.471
 bond charge predicted
       N       E                     dE             d eps       ncg     rms          rms(c)
DAV:   1    -0.198681098070E+01    0.43627E+00   -0.61468E+02   128   0.376E+01    0.527E+00
DAV:   2    -0.258333908129E+01   -0.59653E+00   -0.10188E+01   192   0.229E+00    0.971E+00
DAV:   3    -0.206087671983E+01    0.52246E+00   -0.99976E+00   128   0.961E-01    0.498E+00
DAV:   4    -0.193879564541E+01    0.12208E+00   -0.23260E-01   128   0.279E-01    0.193E+00
DAV:   5    -0.203955467160E+01   -0.10076E+00   -0.23342E-01   192   0.356E-01    0.820E-01
DAV:   6    -0.205453598384E+01   -0.14981E-01   -0.29261E-02   128   0.120E-01    0.447E-01
DAV:   7    -0.205481472265E+01   -0.27874E-03   -0.39839E-03   192   0.548E-02    0.319E-01
DAV:   8    -0.205515834349E+01   -0.34362E-03   -0.17668E-03   128   0.280E-02    0.895E-02
DAV:   9    -0.205598178221E+01   -0.82344E-03   -0.29699E-04   192   0.160E-02    0.330E-02
DAV:  10    -0.205626872338E+01   -0.28694E-03   -0.49116E-05   192   0.783E-03    0.482E-02
DAV:  11    -0.205643967761E+01   -0.17095E-03   -0.20522E-04   192   0.665E-03    0.663E-02
DAV:  12    -0.205652415069E+01   -0.84473E-04   -0.17107E-04   192   0.696E-03
  10 F= -.20565242E+01 E0= -.19778949E+01  d E =0.366581E+00
 BRION: g(F)=  0.579E-02 g(S)=  0.000E+00 retain N=  1 mean eig= 1.32
 eig:   1.320
 writing wavefunctions
Application 9759390 resources: utime ~15609s, stime ~1359s, Rss ~75320, inblocks ~0, outblocks ~41072
