 vasp.5.4.4 18Apr17 (build Sep 25 2018 18:50:45) complex                        
  
 executed on           IFC17_impi date 2018.11.30  20:49:07
 running   64 mpi-ranks, with    4 threads/rank
 distrk:  each k-point on   64 cores,    1 groups
 distr:  one band on NCORES_PER_BAND=   1 cores,   64 groups


--------------------------------------------------------------------------------------------------------


 INCAR:
 POTCAR:    PAW_PBE H 15Jun2001                   
 POTCAR:    PAW_PBE O 08Apr2002                   
 POTCAR:    PAW_PBE H 15Jun2001                   
   VRHFIN =H: ultrasoft test                                                    
   LEXCH  = PE                                                                  
   EATOM  =    12.4884 eV,    0.9179 Ry                                         
                                                                                
   TITEL  = PAW_PBE H 15Jun2001                                                 
   LULTRA =        F    use ultrasoft PP ?                                      
   IUNSCR =        0    unscreen: 0-lin 1-nonlin 2-no                           
   RPACOR =    0.000    partial core radius                                     
   POMASS =    1.000; ZVAL   =    1.000    mass and valenz                      
   RCORE  =    1.100    outmost cutoff radius                                   
   RWIGS  =    0.700; RWIGS  =    0.370    wigner-seitz radius (au A)           
   ENMAX  =  250.000; ENMIN  =  200.000 eV                                      
   RCLOC  =    0.701    cutoff for local pot                                    
   LCOR   =        T    correct aug charges                                     
   LPAW   =        T    paw PP                                                  
   EAUG   =  400.000                                                            
   RMAX   =    1.123    core radius for proj-oper                               
   RAUG   =    1.200    factor for augmentation sphere                          
   RDEP   =    1.112    radius for radial grids                                 
   RDEPT  =    0.926    core radius for aug-charge                              
                                                                                
   Atomic configuration                                                         
    2 entries                                                                   
     n  l   j            E        occ.                                          
     1  0  0.50        -6.4927   1.0000                                         
     2  1  0.50        -3.4015   0.0000                                         
   Description                                                                  
     l       E           TYP  RCUT    TYP  RCUT                                 
     0     -6.4927494     23  1.100                                             
     0      6.8029130     23  1.100                                             
     1     -4.0817478     23  1.100                                             
  local pseudopotential read in
  atomic valenz-charges read in
  non local Contribution for L=           0  read in
    real space projection operators read in
  non local Contribution for L=           0  read in
    real space projection operators read in
  non local Contribution for L=           1  read in
    real space projection operators read in
    PAW grid and wavefunctions read in
 
   number of l-projection  operators is LMAX  =           3
   number of lm-projection operators is LMMAX =           5
 
 POTCAR:    PAW_PBE O 08Apr2002                   
   VRHFIN =O: s2p4                                                              
   LEXCH  = PE                                                                  
   EATOM  =   432.3788 eV,   31.7789 Ry                                         
                                                                                
   TITEL  = PAW_PBE O 08Apr2002                                                 
   LULTRA =        F    use ultrasoft PP ?                                      
   IUNSCR =        1    unscreen: 0-lin 1-nonlin 2-no                           
   RPACOR =    1.200    partial core radius                                     
   POMASS =   16.000; ZVAL   =    6.000    mass and valenz                      
   RCORE  =    1.520    outmost cutoff radius                                   
   RWIGS  =    1.550; RWIGS  =    0.820    wigner-seitz radius (au A)           
   ENMAX  =  400.000; ENMIN  =  300.000 eV                                      
   ICORE  =        2    local potential                                         
   LCOR   =        T    correct aug charges                                     
   LPAW   =        T    paw PP                                                  
   EAUG   =  605.392                                                            
   DEXC   =    0.000                                                            
   RMAX   =    1.553    core radius for proj-oper                               
   RAUG   =    1.300    factor for augmentation sphere                          
   RDEP   =    1.550    radius for radial grids                                 
   RDEPT  =    1.329    core radius for aug-charge                              
                                                                                
   Atomic configuration                                                         
    4 entries                                                                   
     n  l   j            E        occ.                                          
     1  0  0.50      -514.6923   2.0000                                         
     2  0  0.50       -23.9615   2.0000                                         
     2  1  0.50        -9.0305   4.0000                                         
     3  2  1.50        -9.5241   0.0000                                         
   Description                                                                  
     l       E           TYP  RCUT    TYP  RCUT                                 
     0    -23.9615318     23  1.200                                             
     0     -9.5240782     23  1.200                                             
     1     -9.0304911     23  1.520                                             
     1      8.1634956     23  1.520                                             
     2     -9.5240782      7  1.500                                             
  local pseudopotential read in
  partial core-charges read in
  partial kinetic energy density read in
  kinetic energy density of atom read in
  atomic valenz-charges read in
  non local Contribution for L=           0  read in
    real space projection operators read in
  non local Contribution for L=           0  read in
    real space projection operators read in
  non local Contribution for L=           1  read in
    real space projection operators read in
  non local Contribution for L=           1  read in
    real space projection operators read in
    PAW grid and wavefunctions read in
 
   number of l-projection  operators is LMAX  =           4
   number of lm-projection operators is LMMAX =           8
 
  PAW_PBE H 15Jun2001                   :
 energy of atom  1       EATOM=  -12.4884
 kinetic energy error for atom=    0.0098 (will be added to EATOM!!)
  PAW_PBE O 08Apr2002                   :
 energy of atom  2       EATOM= -432.3788
 kinetic energy error for atom=    0.1156 (will be added to EATOM!!)
 
 
 POSCAR: H2O _2                                  
  positions in cartesian coordinates
  No initial velocities read in
 exchange correlation table for  LEXCH =        8
   RHO(1)=    0.500       N(1)  =     2000
   RHO(2)=  100.500       N(2)  =     4000
 


--------------------------------------------------------------------------------------------------------


 ion  position               nearest neighbor table
   1  0.000  0.000  0.000-   2 0.95   3 0.95
   2  0.073  0.905  0.000-   1 0.95   3 1.51
   3  0.073  0.095  0.000-   1 0.95   2 1.51
 
  LATTYP: Found a simple cubic cell.
 ALAT       =     7.9377000000
  
  Lattice vectors:
  
 A1 = (   7.9377000000,   0.0000000000,   0.0000000000)
 A2 = (   0.0000000000,   7.9377000000,   0.0000000000)
 A3 = (   0.0000000000,   0.0000000000,   7.9377000000)


Analysis of symmetry for initial positions (statically):
=====================================================================
 Subroutine PRICEL returns:
 Original cell was already a primitive cell.
 

 Routine SETGRP: Setting up the symmetry group for a 
 simple cubic supercell.


 Subroutine GETGRP returns: Found  4 space group operations
 (whereof  4 operations were pure point group operations)
 out of a pool of 48 trial point group operations.


The static configuration has the point symmetry C_2v.


Analysis of symmetry for dynamics (positions and initial velocities):
=====================================================================
 Subroutine PRICEL returns:
 Original cell was already a primitive cell.
 

 Routine SETGRP: Setting up the symmetry group for a 
 simple cubic supercell.


 Subroutine GETGRP returns: Found  4 space group operations
 (whereof  4 operations were pure point group operations)
 out of a pool of 48 trial point group operations.


The dynamic configuration has the point symmetry C_2v.


Analysis of constrained symmetry for selective dynamics:
=====================================================================
 Subroutine PRICEL returns:
 Original cell was already a primitive cell.
 

 Routine SETGRP: Setting up the symmetry group for a 
 simple cubic supercell.


 Subroutine GETGRP returns: Found  4 space group operations
 (whereof  4 operations were pure point group operations)
 out of a pool of 48 trial point group operations.


The constrained configuration has the point symmetry C_2v.


 Subroutine INISYM returns: Found  4 space group operations
 (whereof  4 operations are pure point group operations),
 and found     1 'primitive' translations

 
 
 KPOINTS: Gamma-point only                        

Automatic generation of k-mesh.
Space group operators:
 irot       det(A)        alpha          n_x          n_y          n_z        tau_x        tau_y        tau_z
    1     1.000000     0.000001     1.000000     0.000000     0.000000     0.000000     0.000000     0.000000
    2    -1.000000   180.000000     0.000000     0.000000     1.000000     0.000000     0.000000     0.000000
    3     1.000000   180.000000     1.000000     0.000000     0.000000     0.000000     0.000000     0.000000
    4    -1.000000   180.000000     0.000000     1.000000     0.000000     0.000000     0.000000     0.000000
 
 Subroutine IBZKPT returns following result:
 ===========================================
 
 Found      1 irreducible k-points:
 
 Following reciprocal coordinates:
            Coordinates               Weight
  0.000000  0.000000  0.000000      1.000000
 
 Following cartesian coordinates:
            Coordinates               Weight
  0.000000  0.000000  0.000000      1.000000
 


--------------------------------------------------------------------------------------------------------




 Dimension of arrays:
   k-points           NKPTS =      1   k-points in BZ     NKDIM =      1   number of bands    NBANDS=     64
   number of dos      NEDOS =    301   number of ions     NIONS =      3
   non local maximal  LDIM  =      4   non local SUM 2l+1 LMDIM =      8
   total plane-waves  NPLWV =  64000
   max r-space proj   IRMAX =      1   max aug-charges    IRDMAX=   1860
   dimension x,y,z NGX =    40 NGY =   40 NGZ =   40
   dimension x,y,z NGXF=    80 NGYF=   80 NGZF=   80
   support grid    NGXF=    80 NGYF=   80 NGZF=   80
   ions per type =               1   2
   NGX,Y,Z   is equivalent  to a cutoff of   8.38,  8.38,  8.38 a.u.
   NGXF,Y,Z  is equivalent  to a cutoff of  16.76, 16.76, 16.76 a.u.

 SYSTEM =  unknown system                          
 POSCAR =  H2O _2                                  

 Startparameter for this run:
   NWRITE =      2    write-flag & timer
   PREC   = normal    normal or accurate (medium, high low for compatibility)
   ISTART =      0    job   : 0-new  1-cont  2-samecut
   ICHARG =      2    charge: 1-file 2-atom 10-const
   ISPIN  =      1    spin polarized calculation?
   LNONCOLLINEAR =      F non collinear calculations
   LSORBIT =      F    spin-orbit coupling
   INIWAV =      1    electr: 0-lowe 1-rand  2-diag
   LASPH  =      F    aspherical Exc in radial PAW
   METAGGA=      F    non-selfconsistent MetaGGA calc.

 Electronic Relaxation 1
   ENCUT  =  400.0 eV  29.40 Ry    5.42 a.u.  12.94 12.94 12.94*2*pi/ulx,y,z
   ENINI  =  400.0     initial cutoff
   ENAUG  =  605.4 eV  augmentation charge cutoff
   NELM   =     60;   NELMIN=  2; NELMDL= -5     # of ELM steps 
   EDIFF  = 0.1E-03   stopping-criterion for ELM
   LREAL  =      F    real-space projection
   NLSPLINE    = F    spline interpolate recip. space projectors
   LCOMPAT=      F    compatible to vasp.4.4
   GGA_COMPAT  = T    GGA compatible to vasp.4.4-vasp.4.6
   LMAXPAW     = -100 max onsite density
   LMAXMIX     =    2 max onsite mixed and CHGCAR
   VOSKOWN=      0    Vosko Wilk Nusair interpolation
   ROPT   =    0.00000   0.00000
 Ionic relaxation
   EDIFFG = -.2E-01   stopping-criterion for IOM
   NSW    =     10    number of steps for IOM
   NBLOCK =      1;   KBLOCK =     10    inner block; outer block 
   IBRION =      1    ionic relax: 0-MD 1-quasi-New 2-CG
   NFREE  =      2    steps in history (QN), initial steepest desc. (CG)
   ISIF   =      2    stress and relaxation
   IWAVPR =     11    prediction:  0-non 1-charg 2-wave 3-comb
   ISYM   =      2    0-nonsym 1-usesym 2-fastsym
   LCORR  =      T    Harris-Foulkes like correction to forces

   POTIM  = 0.5000    time-step for ionic-motion
   TEIN   =    0.0    initial temperature
   TEBEG  =    0.0;   TEEND  =   0.0 temperature during run
   SMASS  =  -3.00    Nose mass-parameter (am)
   estimated Nose-frequenzy (Omega)   =  0.10E-29 period in steps =****** mass=  -0.144E-26a.u.
   SCALEE = 1.0000    scale energy and forces
   NPACO  =    256;   APACO  = 16.0  distance and # of slots for P.C.
   PSTRESS=    0.0 pullay stress

  Mass of Ions in am
   POMASS =   1.00 16.00
  Ionic Valenz
   ZVAL   =   1.00  6.00
  Atomic Wigner-Seitz radii
   RWIGS  =  -1.00 -1.00
  virtual crystal weights 
   VCA    =   1.00  1.00
   NELECT =      13.0000    total number of electrons
   NUPDOWN=      -1.0000    fix difference up-down

 DOS related values:
   EMIN   =  10.00;   EMAX   =-10.00  energy-range for DOS
   EFERMI =   0.00
   ISMEAR =     0;   SIGMA  =   0.10  broadening in eV -4-tet -1-fermi 0-gaus

 Electronic relaxation 2 (details)
   IALGO  =     38    algorithm
   LDIAG  =      T    sub-space diagonalisation (order eigenvalues)
   LSUBROT=      F    optimize rotation matrix (better conditioning)
   TURBO    =      0    0=normal 1=particle mesh
   IRESTART =      0    0=no restart 2=restart with 2 vectors
   NREBOOT  =      0    no. of reboots
   NMIN     =      0    reboot dimension
   EREF     =   0.00    reference energy to select bands
   IMIX   =      4    mixing-type and parameters
     AMIX     =   0.40;   BMIX     =  1.00
     AMIX_MAG =   1.60;   BMIX_MAG =  1.00
     AMIN     =   0.10
     WC   =   100.;   INIMIX=   1;  MIXPRE=   1;  MAXMIX= -45

 Intra band minimization:
   WEIMIN = 0.0010     energy-eigenvalue tresh-hold
   EBREAK =  0.39E-06  absolut break condition
   DEPER  =   0.30     relativ break condition  

   TIME   =   0.40     timestep for ELM

  volume/ion in A,a.u.               =     166.71      1125.02
  Fermi-wavevector in a.u.,A,eV,Ry     =   0.484947  0.916418  3.199736  0.235174
  Thomas-Fermi vector in A             =   1.484914
 
 Write flags
   LWAVE        =      T    write WAVECAR
   LDOWNSAMPLE  =      F    k-point downsampling of WAVECAR
   LCHARG       =      T    write CHGCAR
   LVTOT        =      F    write LOCPOT, total local potential
   LVHAR        =      F    write LOCPOT, Hartree potential only
   LELF         =      F    write electronic localiz. function (ELF)
   LORBIT       =      0    0 simple, 1 ext, 2 COOP (PROOUT), +10 PAW based schemes


 Dipole corrections
   LMONO  =      F    monopole corrections only (constant potential shift)
   LDIPOL =      F    correct potential (dipole corrections)
   IDIPOL =      0    1-x, 2-y, 3-z, 4-all directions 
   EPSILON=  1.0000000 bulk dielectric constant

 Exchange correlation treatment:
   GGA     =    --    GGA type
   LEXCH   =     8    internal setting for exchange type
   VOSKOWN=      0    Vosko Wilk Nusair interpolation
   LHFCALC =     F    Hartree Fock is set to
   LHFONE  =     F    Hartree Fock one center treatment
   AEXX    =    0.0000 exact exchange contribution

 Linear response parameters
   LEPSILON=     F    determine dielectric tensor
   LRPA    =     F    only Hartree local field effects (RPA)
   LNABLA  =     F    use nabla operator in PAW spheres
   LVEL    =     F    velocity operator in full k-point grid
   LINTERFAST=   F  fast interpolation
   KINTER  =     0    interpolate to denser k-point grid
   CSHIFT  =0.1000    complex shift for real part using Kramers Kronig
   OMEGAMAX=  -1.0    maximum frequency
   DEG_THRESHOLD= 0.2000000E-02 threshold for treating states as degnerate
   RTIME   =   -0.100 relaxation time in fs
  (WPLASMAI=    0.000 imaginary part of plasma frequency in eV, 0.658/RTIME)
   DFIELD  = 0.0000000 0.0000000 0.0000000 field for delta impulse in time
 
 Orbital magnetization related:
   ORBITALMAG=     F  switch on orbital magnetization
   LCHIMAG   =     F  perturbation theory with respect to B field
   DQ        =  0.001000  dq finite difference perturbation B field
   LLRAUG    =     F  two centre corrections for induced B field



--------------------------------------------------------------------------------------------------------


 quasi-Newton-method for relaxation of ions
   using selective dynamics as specified on POSCAR
   WARNING: If single coordinates had been selected the selection of coordinates
            is made according to the corresponding   d i r e c t   coordinates!
            Don't support selection of single cartesian coordinates -- sorry ...
  !
 charge density and potential will be updated during run
 non-spin polarized calculation
 Variant of blocked Davidson
 Davidson routine will perform the subspace rotation
 perform sub-space diagonalisation
    after iterative eigenvector-optimisation
 modified Broyden-mixing scheme, WC =      100.0
 initial mixing is a Kerker type mixing with AMIX =  0.4000 and BMIX =      1.0000
 Hartree-type preconditioning will be used
 using additional bands           57
 reciprocal scheme for non local part
 use partial core corrections
 calculate Harris-corrections to forces 
   (improved forces if not selfconsistent)
 use gradient corrections 
 use of overlap-Matrix (Vanderbilt PP)
 Gauss-broadening in eV      SIGMA  =   0.10


--------------------------------------------------------------------------------------------------------


  energy-cutoff  :      400.00
  volume of cell :      500.13
      direct lattice vectors                 reciprocal lattice vectors
     7.937700000  0.000000000  0.000000000     0.125981078  0.000000000  0.000000000
     0.000000000  7.937700000  0.000000000     0.000000000  0.125981078  0.000000000
     0.000000000  0.000000000  7.937700000     0.000000000  0.000000000  0.125981078

  length of vectors
     7.937700000  7.937700000  7.937700000     0.125981078  0.125981078  0.125981078


 
 k-points in units of 2pi/SCALE and weight: Gamma-point only                        
   0.00000000  0.00000000  0.00000000       1.000
 
 k-points in reciprocal lattice and weights: Gamma-point only                        
   0.00000000  0.00000000  0.00000000       1.000
 
 position of ions in fractional coordinates (direct lattice) 
   0.00000000  0.00000000  0.00000000
   0.07333333  0.90466667  0.00000000
   0.07333333  0.09533333  0.00000000
 
 position of ions in cartesian coordinates  (Angst):
   0.00000000  0.00000000  0.00000000
   0.58209800  7.18097260  0.00000000
   0.58209800  0.75672740  0.00000000
 


--------------------------------------------------------------------------------------------------------


 k-point  1 :   0.0000 0.0000 0.0000  plane waves:    9045

 maximum and minimum number of plane-waves per node :      9045     9045

 maximum number of plane-waves:      9045
 maximum index in each direction: 
   IXMAX=   12   IYMAX=   12   IZMAX=   12
   IXMIN=  -12   IYMIN=  -12   IZMIN=  -12


 serial   3D FFT for wavefunctions
 parallel 3D FFT for charge:
    minimum data exchange during FFTs selected (reduces bandwidth)


 total amount of memory used by VASP MPI-rank0    35754. kBytes
=======================================================================

   base      :      30000. kBytes
   nonl-proj :       1599. kBytes
   fftplans  :        685. kBytes
   grid      :       3315. kBytes
   one-center:          9. kBytes
   wavefun   :        146. kBytes
 
     INWAV:  cpu time    0.0000: real time    0.0001
 Broyden mixing: mesh for mixing (old mesh)
   NGX = 25   NGY = 25   NGZ = 25
  (NGX  = 80   NGY  = 80   NGZ  = 80)
  gives a total of  15625 points

 initial charge density was supplied:
 charge density of overlapping atoms calculated
 number of electron      13.0000000 magnetization 
 keeping initial charge density in first step


--------------------------------------------------------------------------------------------------------


 Maximum index for augmentation-charges           89 (set IRDMAX)


--------------------------------------------------------------------------------------------------------


 First call to EWALD:  gamma=   0.223
 Maximum number of real-space cells 3x 3x 3
 Maximum number of reciprocal cells 3x 3x 3

    FEWALD:  cpu time    0.0280: real time    0.0069


--------------------------------------- Iteration      1(   1)  ---------------------------------------


    POTLOK:  cpu time    0.3080: real time    0.0818
    SETDIJ:  cpu time    0.0360: real time    0.0087
     EDDAV:  cpu time    0.7960: real time    0.1990
       DOS:  cpu time    0.0080: real time    0.0027
    --------------------------------------------
      LOOP:  cpu time    1.1520: real time    0.2926

 eigenvalue-minimisations  :   128
 total energy-change (2. order) : 0.5556542E+02  (-0.3664330E+03)
 number of electron      13.0000000 magnetization 
 augmentation part       13.0000000 magnetization 

 Free energy of the ion-electron system (eV)
  ---------------------------------------------------
  alpha Z        PSCENC =         1.26727950
  Ewald energy   TEWEN  =        94.48331469
  -Hartree energ DENC   =      -816.33685448
  -exchange      EXHF   =         0.00000000
  -V(xc)+E(xc)   XCENC  =        57.20351130
  PAW double counting   =       695.23298122     -698.83920033
  entropy T*S    EENTRO =        -0.05641896
  eigenvalues    EBANDS =      -154.39421805
  atomic energy  EATOM  =       877.00502474
  Solvation  Ediel_sol  =         0.00000000
  ---------------------------------------------------
  free energy    TOTEN  =        55.56541962 eV

  energy without entropy =       55.62183858  energy(sigma->0) =       55.59362910


--------------------------------------------------------------------------------------------------------




--------------------------------------- Iteration      1(   2)  ---------------------------------------


     EDDAV:  cpu time    1.2960: real time    0.3239
       DOS:  cpu time    0.0080: real time    0.0021
    --------------------------------------------
      LOOP:  cpu time    1.3000: real time    0.3259

 eigenvalue-minimisations  :   192
 total energy-change (2. order) :-0.6552253E+02  (-0.6552253E+02)
 number of electron      13.0000000 magnetization 
 augmentation part       13.0000000 magnetization 

 Free energy of the ion-electron system (eV)
  ---------------------------------------------------
  alpha Z        PSCENC =         1.26727950
  Ewald energy   TEWEN  =        94.48331469
  -Hartree energ DENC   =      -816.33685448
  -exchange      EXHF   =         0.00000000
  -V(xc)+E(xc)   XCENC  =        57.20351130
  PAW double counting   =       695.23298122     -698.83920033
  entropy T*S    EENTRO =        -0.05641896
  eigenvalues    EBANDS =      -219.91675074
  atomic energy  EATOM  =       877.00502474
  Solvation  Ediel_sol  =         0.00000000
  ---------------------------------------------------
  free energy    TOTEN  =        -9.95711307 eV

  energy without entropy =       -9.90069412  energy(sigma->0) =       -9.92890359


--------------------------------------------------------------------------------------------------------




--------------------------------------- Iteration      1(   3)  ---------------------------------------


     EDDAV:  cpu time    0.6760: real time    0.1742
       DOS:  cpu time    0.0080: real time    0.0025
    --------------------------------------------
      LOOP:  cpu time    0.6840: real time    0.1767

 eigenvalue-minimisations  :   128
 total energy-change (2. order) :-0.2857378E+00  (-0.2857378E+00)
 number of electron      13.0000000 magnetization 
 augmentation part       13.0000000 magnetization 

 Free energy of the ion-electron system (eV)
  ---------------------------------------------------
  alpha Z        PSCENC =         1.26727950
  Ewald energy   TEWEN  =        94.48331469
  -Hartree energ DENC   =      -816.33685448
  -exchange      EXHF   =         0.00000000
  -V(xc)+E(xc)   XCENC  =        57.20351130
  PAW double counting   =       695.23298122     -698.83920033
  entropy T*S    EENTRO =        -0.05641896
  eigenvalues    EBANDS =      -220.20248850
  atomic energy  EATOM  =       877.00502474
  Solvation  Ediel_sol  =         0.00000000
  ---------------------------------------------------
  free energy    TOTEN  =       -10.24285083 eV

  energy without entropy =      -10.18643187  energy(sigma->0) =      -10.21464135


--------------------------------------------------------------------------------------------------------




--------------------------------------- Iteration      1(   4)  ---------------------------------------


     EDDAV:  cpu time    1.0400: real time    0.2598
       DOS:  cpu time    0.0080: real time    0.0024
    --------------------------------------------
      LOOP:  cpu time    1.0520: real time    0.2622

 eigenvalue-minimisations  :   192
 total energy-change (2. order) :-0.5086344E-03  (-0.5086352E-03)
 number of electron      13.0000000 magnetization 
 augmentation part       13.0000000 magnetization 

 Free energy of the ion-electron system (eV)
  ---------------------------------------------------
  alpha Z        PSCENC =         1.26727950
  Ewald energy   TEWEN  =        94.48331469
  -Hartree energ DENC   =      -816.33685448
  -exchange      EXHF   =         0.00000000
  -V(xc)+E(xc)   XCENC  =        57.20351130
  PAW double counting   =       695.23298122     -698.83920033
  entropy T*S    EENTRO =        -0.05641896
  eigenvalues    EBANDS =      -220.20299713
  atomic energy  EATOM  =       877.00502474
  Solvation  Ediel_sol  =         0.00000000
  ---------------------------------------------------
  free energy    TOTEN  =       -10.24335947 eV

  energy without entropy =      -10.18694051  energy(sigma->0) =      -10.21514999


--------------------------------------------------------------------------------------------------------




--------------------------------------- Iteration      1(   5)  ---------------------------------------


     EDDAV:  cpu time    0.6000: real time    0.1532
       DOS:  cpu time    0.0080: real time    0.0022
    CHARGE:  cpu time    0.2600: real time    0.0641
    MIXING:  cpu time    0.0080: real time    0.0029
    --------------------------------------------
      LOOP:  cpu time    0.8760: real time    0.2225

 eigenvalue-minimisations  :   128
 total energy-change (2. order) :-0.6430355E-07  (-0.6350185E-07)
 number of electron      13.0000109 magnetization 
 augmentation part        1.2060292 magnetization 

 Broyden mixing:
  rms(total) = 0.69457E+00    rms(broyden)= 0.68136E+00
  rms(prec ) = 0.82464E+00
  weight for this iteration     100.00

 Free energy of the ion-electron system (eV)
  ---------------------------------------------------
  alpha Z        PSCENC =         1.26727950
  Ewald energy   TEWEN  =        94.48331469
  -Hartree energ DENC   =      -816.33685448
  -exchange      EXHF   =         0.00000000
  -V(xc)+E(xc)   XCENC  =        57.20351130
  PAW double counting   =       695.23298122     -698.83920033
  entropy T*S    EENTRO =        -0.05641896
  eigenvalues    EBANDS =      -220.20299720
  atomic energy  EATOM  =       877.00502474
  Solvation  Ediel_sol  =         0.00000000
  ---------------------------------------------------
  free energy    TOTEN  =       -10.24335953 eV

  energy without entropy =      -10.18694057  energy(sigma->0) =      -10.21515005


--------------------------------------------------------------------------------------------------------




--------------------------------------- Iteration      1(   6)  ---------------------------------------


    POTLOK:  cpu time    0.2120: real time    0.0565
    SETDIJ:  cpu time    0.0320: real time    0.0082
     EDDAV:  cpu time    0.9800: real time    0.2444
       DOS:  cpu time    0.0080: real time    0.0022
    CHARGE:  cpu time    0.2320: real time    0.0579
    MIXING:  cpu time    0.0080: real time    0.0024
    --------------------------------------------
      LOOP:  cpu time    1.4720: real time    0.3716

 eigenvalue-minimisations  :   192
 total energy-change (2. order) : 0.5648398E+00  (-0.7833807E-01)
 number of electron      13.0000106 magnetization 
 augmentation part        1.1671516 magnetization 

 Broyden mixing:
  rms(total) = 0.36291E+00    rms(broyden)= 0.36231E+00
  rms(prec ) = 0.42762E+00
  weight for this iteration     100.00

 eigenvalues of (default mixing * dielectric matrix)
  average eigenvalue GAMMA=   1.8862
  1.8862

 Free energy of the ion-electron system (eV)
  ---------------------------------------------------
  alpha Z        PSCENC =         1.26727950
  Ewald energy   TEWEN  =        94.48331469
  -Hartree energ DENC   =      -828.27322703
  -exchange      EXHF   =         0.00000000
  -V(xc)+E(xc)   XCENC  =        57.96436118
  PAW double counting   =       789.45769345     -793.15611753
  entropy T*S    EENTRO =        -0.05641896
  eigenvalues    EBANDS =      -208.37042973
  atomic energy  EATOM  =       877.00502474
  Solvation  Ediel_sol  =         0.00000000
  ---------------------------------------------------
  free energy    TOTEN  =        -9.67851970 eV

  energy without entropy =       -9.62210074  energy(sigma->0) =       -9.65031022


--------------------------------------------------------------------------------------------------------




--------------------------------------- Iteration      1(   7)  ---------------------------------------


    POTLOK:  cpu time    0.2000: real time    0.0528
    SETDIJ:  cpu time    0.0320: real time    0.0076
     EDDAV:  cpu time    1.0200: real time    0.2551
       DOS:  cpu time    0.0080: real time    0.0022
    CHARGE:  cpu time    0.2200: real time    0.0549
    MIXING:  cpu time    0.0120: real time    0.0026
    --------------------------------------------
      LOOP:  cpu time    1.4880: real time    0.3752

 eigenvalue-minimisations  :   192
 total energy-change (2. order) : 0.1104439E+00  (-0.2841919E-01)
 number of electron      13.0000105 magnetization 
 augmentation part        1.1456820 magnetization 

 Broyden mixing:
  rms(total) = 0.97819E-01    rms(broyden)= 0.97739E-01
  rms(prec ) = 0.11803E+00
  weight for this iteration     100.00

 eigenvalues of (default mixing * dielectric matrix)
  average eigenvalue GAMMA=   1.9089
  1.4181  2.3996

 Free energy of the ion-electron system (eV)
  ---------------------------------------------------
  alpha Z        PSCENC =         1.26727950
  Ewald energy   TEWEN  =        94.48331469
  -Hartree energ DENC   =      -836.52991360
  -exchange      EXHF   =         0.00000000
  -V(xc)+E(xc)   XCENC  =        58.46602069
  PAW double counting   =       902.78647602     -906.48902084
  entropy T*S    EENTRO =        -0.05642102
  eigenvalues    EBANDS =      -200.50083596
  atomic energy  EATOM  =       877.00502474
  Solvation  Ediel_sol  =         0.00000000
  ---------------------------------------------------
  free energy    TOTEN  =        -9.56807579 eV

  energy without entropy =       -9.51165477  energy(sigma->0) =       -9.53986528


--------------------------------------------------------------------------------------------------------




--------------------------------------- Iteration      1(   8)  ---------------------------------------


    POTLOK:  cpu time    0.1880: real time    0.0499
    SETDIJ:  cpu time    0.0320: real time    0.0076
     EDDAV:  cpu time    0.9880: real time    0.2475
       DOS:  cpu time    0.0120: real time    0.0026
    CHARGE:  cpu time    0.2200: real time    0.0556
    MIXING:  cpu time    0.0120: real time    0.0030
    --------------------------------------------
      LOOP:  cpu time    1.4560: real time    0.3662

 eigenvalue-minimisations  :   192
 total energy-change (2. order) : 0.3749912E-02  (-0.1881410E-02)
 number of electron      13.0000105 magnetization 
 augmentation part        1.1497815 magnetization 

 Broyden mixing:
  rms(total) = 0.98820E-02    rms(broyden)= 0.98533E-02
  rms(prec ) = 0.23744E-01
  weight for this iteration     100.00

 eigenvalues of (default mixing * dielectric matrix)
  average eigenvalue GAMMA=   1.8157
  2.4075  1.4032  1.6363

 Free energy of the ion-electron system (eV)
  ---------------------------------------------------
  alpha Z        PSCENC =         1.26727950
  Ewald energy   TEWEN  =        94.48331469
  -Hartree energ DENC   =      -836.96025438
  -exchange      EXHF   =         0.00000000
  -V(xc)+E(xc)   XCENC  =        58.48290610
  PAW double counting   =       941.18285417     -944.82182938
  entropy T*S    EENTRO =        -0.05653946
  eigenvalues    EBANDS =      -200.14708185
  atomic energy  EATOM  =       877.00502474
  Solvation  Ediel_sol  =         0.00000000
  ---------------------------------------------------
  free energy    TOTEN  =        -9.56432588 eV

  energy without entropy =       -9.50778642  energy(sigma->0) =       -9.53605615


--------------------------------------------------------------------------------------------------------




--------------------------------------- Iteration      1(   9)  ---------------------------------------


    POTLOK:  cpu time    0.2000: real time    0.0529
    SETDIJ:  cpu time    0.0280: real time    0.0074
     EDDAV:  cpu time    0.9960: real time    0.2481
       DOS:  cpu time    0.0080: real time    0.0023
    CHARGE:  cpu time    0.2280: real time    0.0574
    MIXING:  cpu time    0.0120: real time    0.0033
    --------------------------------------------
      LOOP:  cpu time    1.4720: real time    0.3714

 eigenvalue-minimisations  :   192
 total energy-change (2. order) :-0.1320695E-02  (-0.1723805E-03)
 number of electron      13.0000105 magnetization 
 augmentation part        1.1487502 magnetization 

 Broyden mixing:
  rms(total) = 0.53237E-02    rms(broyden)= 0.53130E-02
  rms(prec ) = 0.13394E-01
  weight for this iteration     100.00

 eigenvalues of (default mixing * dielectric matrix)
  average eigenvalue GAMMA=   1.8274
  2.4747  2.1994  1.3177  1.3177

 Free energy of the ion-electron system (eV)
  ---------------------------------------------------
  alpha Z        PSCENC =         1.26727950
  Ewald energy   TEWEN  =        94.48331469
  -Hartree energ DENC   =      -837.66026434
  -exchange      EXHF   =         0.00000000
  -V(xc)+E(xc)   XCENC  =        58.50885850
  PAW double counting   =       941.90235309     -945.53718988
  entropy T*S    EENTRO =        -0.05652941
  eigenvalues    EBANDS =      -199.47849345
  atomic energy  EATOM  =       877.00502474
  Solvation  Ediel_sol  =         0.00000000
  ---------------------------------------------------
  free energy    TOTEN  =        -9.56564658 eV

  energy without entropy =       -9.50911717  energy(sigma->0) =       -9.53738187


--------------------------------------------------------------------------------------------------------




--------------------------------------- Iteration      1(  10)  ---------------------------------------


    POTLOK:  cpu time    0.2120: real time    0.0561
    SETDIJ:  cpu time    0.0320: real time    0.0073
     EDDAV:  cpu time    0.5600: real time    0.1399
       DOS:  cpu time    0.0120: real time    0.0030
    CHARGE:  cpu time    0.2240: real time    0.0561
    MIXING:  cpu time    0.2000: real time    0.0658
    --------------------------------------------
      LOOP:  cpu time    1.2360: real time    0.3281

 eigenvalue-minimisations  :   128
 total energy-change (2. order) :-0.1878399E-02  (-0.3557600E-04)
 number of electron      13.0000105 magnetization 
 augmentation part        1.1491242 magnetization 

 Broyden mixing:
  rms(total) = 0.28550E-02    rms(broyden)= 0.28528E-02
  rms(prec ) = 0.72175E-02
  weight for this iteration     100.00

 eigenvalues of (default mixing * dielectric matrix)
  average eigenvalue GAMMA=   1.9166
  3.0722  2.4492  1.0162  1.3301  1.7154

 Free energy of the ion-electron system (eV)
  ---------------------------------------------------
  alpha Z        PSCENC =         1.26727950
  Ewald energy   TEWEN  =        94.48331469
  -Hartree energ DENC   =      -837.83591758
  -exchange      EXHF   =         0.00000000
  -V(xc)+E(xc)   XCENC  =        58.50717113
  PAW double counting   =       941.10695766     -944.73558972
  entropy T*S    EENTRO =        -0.05652077
  eigenvalues    EBANDS =      -199.30924462
  atomic energy  EATOM  =       877.00502474
  Solvation  Ediel_sol  =         0.00000000
  ---------------------------------------------------
  free energy    TOTEN  =        -9.56752498 eV

  energy without entropy =       -9.51100420  energy(sigma->0) =       -9.53926459


--------------------------------------------------------------------------------------------------------




--------------------------------------- Iteration      1(  11)  ---------------------------------------


    POTLOK:  cpu time    0.2200: real time    0.0581
    SETDIJ:  cpu time    0.0320: real time    0.0076
     EDDAV:  cpu time    0.9760: real time    0.2445
       DOS:  cpu time    0.0120: real time    0.0027
    CHARGE:  cpu time    0.2280: real time    0.0570
    MIXING:  cpu time    0.0160: real time    0.0043
    --------------------------------------------
      LOOP:  cpu time    1.4880: real time    0.3743

 eigenvalue-minimisations  :   192
 total energy-change (2. order) :-0.1959214E-02  (-0.3700175E-04)
 number of electron      13.0000105 magnetization 
 augmentation part        1.1487290 magnetization 

 Broyden mixing:
  rms(total) = 0.13735E-02    rms(broyden)= 0.13711E-02
  rms(prec ) = 0.31921E-02
  weight for this iteration     100.00

 eigenvalues of (default mixing * dielectric matrix)
  average eigenvalue GAMMA=   2.1885
  4.2997  2.5903  2.2798  0.9729  1.6250  1.3631

 Free energy of the ion-electron system (eV)
  ---------------------------------------------------
  alpha Z        PSCENC =         1.26727950
  Ewald energy   TEWEN  =        94.48331469
  -Hartree energ DENC   =      -838.09752419
  -exchange      EXHF   =         0.00000000
  -V(xc)+E(xc)   XCENC  =        58.51420684
  PAW double counting   =       940.43328227     -944.06296364
  entropy T*S    EENTRO =        -0.05651875
  eigenvalues    EBANDS =      -199.05558564
  atomic energy  EATOM  =       877.00502474
  Solvation  Ediel_sol  =         0.00000000
  ---------------------------------------------------
  free energy    TOTEN  =        -9.56948419 eV

  energy without entropy =       -9.51296544  energy(sigma->0) =       -9.54122482


--------------------------------------------------------------------------------------------------------




--------------------------------------- Iteration      1(  12)  ---------------------------------------


    POTLOK:  cpu time    0.2200: real time    0.0574
    SETDIJ:  cpu time    0.0320: real time    0.0081
     EDDAV:  cpu time    1.0240: real time    0.2558
       DOS:  cpu time    0.0080: real time    0.0028
    CHARGE:  cpu time    0.2240: real time    0.0557
    MIXING:  cpu time    0.0160: real time    0.0038
    --------------------------------------------
      LOOP:  cpu time    1.5200: real time    0.3837

 eigenvalue-minimisations  :   192
 total energy-change (2. order) :-0.1120952E-02  (-0.1518191E-04)
 number of electron      13.0000105 magnetization 
 augmentation part        1.1486875 magnetization 

 Broyden mixing:
  rms(total) = 0.52112E-03    rms(broyden)= 0.52065E-03
  rms(prec ) = 0.11267E-02
  weight for this iteration     100.00

 eigenvalues of (default mixing * dielectric matrix)
  average eigenvalue GAMMA=   2.2302
  4.8793  2.7822  2.4602  0.9859  1.7005  1.4018  1.4018

 Free energy of the ion-electron system (eV)
  ---------------------------------------------------
  alpha Z        PSCENC =         1.26727950
  Ewald energy   TEWEN  =        94.48331469
  -Hartree energ DENC   =      -838.13359143
  -exchange      EXHF   =         0.00000000
  -V(xc)+E(xc)   XCENC  =        58.51287159
  PAW double counting   =       940.26970111     -943.90038175
  entropy T*S    EENTRO =        -0.05652261
  eigenvalues    EBANDS =      -199.01830097
  atomic energy  EATOM  =       877.00502474
  Solvation  Ediel_sol  =         0.00000000
  ---------------------------------------------------
  free energy    TOTEN  =        -9.57060514 eV

  energy without entropy =       -9.51408253  energy(sigma->0) =       -9.54234384


--------------------------------------------------------------------------------------------------------




--------------------------------------- Iteration      1(  13)  ---------------------------------------


    POTLOK:  cpu time    0.2120: real time    0.0568
    SETDIJ:  cpu time    0.0320: real time    0.0074
     EDDAV:  cpu time    0.9960: real time    0.2494
       DOS:  cpu time    0.0120: real time    0.0026
    CHARGE:  cpu time    0.2200: real time    0.0557
    MIXING:  cpu time    0.0200: real time    0.0042
    --------------------------------------------
      LOOP:  cpu time    1.4920: real time    0.3760

 eigenvalue-minimisations  :   192
 total energy-change (2. order) :-0.2535497E-03  (-0.1862633E-05)
 number of electron      13.0000105 magnetization 
 augmentation part        1.1487442 magnetization 

 Broyden mixing:
  rms(total) = 0.27894E-03    rms(broyden)= 0.27881E-03
  rms(prec ) = 0.56396E-03
  weight for this iteration     100.00

 eigenvalues of (default mixing * dielectric matrix)
  average eigenvalue GAMMA=   2.3663
  5.8631  3.2017  2.4442  2.3959  1.6634  1.3248  1.0186  1.0186

 Free energy of the ion-electron system (eV)
  ---------------------------------------------------
  alpha Z        PSCENC =         1.26727950
  Ewald energy   TEWEN  =        94.48331469
  -Hartree energ DENC   =      -838.10696596
  -exchange      EXHF   =         0.00000000
  -V(xc)+E(xc)   XCENC  =        58.51120181
  PAW double counting   =       940.40916641     -944.03954298
  entropy T*S    EENTRO =        -0.05652325
  eigenvalues    EBANDS =      -199.04381364
  atomic energy  EATOM  =       877.00502474
  Solvation  Ediel_sol  =         0.00000000
  ---------------------------------------------------
  free energy    TOTEN  =        -9.57085869 eV

  energy without entropy =       -9.51433544  energy(sigma->0) =       -9.54259707


--------------------------------------------------------------------------------------------------------




--------------------------------------- Iteration      1(  14)  ---------------------------------------


    POTLOK:  cpu time    0.2080: real time    0.0554
    SETDIJ:  cpu time    0.0280: real time    0.0074
     EDDAV:  cpu time    1.0280: real time    0.2564
       DOS:  cpu time    0.0080: real time    0.0027
    CHARGE:  cpu time    0.2240: real time    0.0561
    MIXING:  cpu time    0.0200: real time    0.0046
    --------------------------------------------
      LOOP:  cpu time    1.5160: real time    0.3827

 eigenvalue-minimisations  :   192
 total energy-change (2. order) :-0.1309443E-03  (-0.1086920E-05)
 number of electron      13.0000105 magnetization 
 augmentation part        1.1487221 magnetization 

 Broyden mixing:
  rms(total) = 0.96762E-04    rms(broyden)= 0.96705E-04
  rms(prec ) = 0.16700E-03
  weight for this iteration     100.00

 eigenvalues of (default mixing * dielectric matrix)
  average eigenvalue GAMMA=   2.3794
  6.0722  3.4897  2.5634  2.3063  0.9991  0.9991  1.3253  1.9721  1.6878

 Free energy of the ion-electron system (eV)
  ---------------------------------------------------
  alpha Z        PSCENC =         1.26727950
  Ewald energy   TEWEN  =        94.48331469
  -Hartree energ DENC   =      -838.10043698
  -exchange      EXHF   =         0.00000000
  -V(xc)+E(xc)   XCENC  =        58.51096127
  PAW double counting   =       940.45046126     -944.08077695
  entropy T*S    EENTRO =        -0.05652206
  eigenvalues    EBANDS =      -199.05029510
  atomic energy  EATOM  =       877.00502474
  Solvation  Ediel_sol  =         0.00000000
  ---------------------------------------------------
  free energy    TOTEN  =        -9.57098964 eV

  energy without entropy =       -9.51446758  energy(sigma->0) =       -9.54272861


--------------------------------------------------------------------------------------------------------




--------------------------------------- Iteration      1(  15)  ---------------------------------------


    POTLOK:  cpu time    0.2120: real time    0.0565
    SETDIJ:  cpu time    0.0320: real time    0.0074
     EDDAV:  cpu time    1.0240: real time    0.2559
       DOS:  cpu time    0.0080: real time    0.0027
    --------------------------------------------
      LOOP:  cpu time    1.2800: real time    0.3224

 eigenvalue-minimisations  :   192
 total energy-change (2. order) :-0.1703212E-04  (-0.6527519E-07)
 number of electron      13.0000105 magnetization 
 augmentation part        1.1487221 magnetization 

 Free energy of the ion-electron system (eV)
  ---------------------------------------------------
  alpha Z        PSCENC =         1.26727950
  Ewald energy   TEWEN  =        94.48331469
  -Hartree energ DENC   =      -838.09946294
  -exchange      EXHF   =         0.00000000
  -V(xc)+E(xc)   XCENC  =        58.51095945
  PAW double counting   =       940.44085504     -944.07112349
  entropy T*S    EENTRO =        -0.05652228
  eigenvalues    EBANDS =      -199.05133137
  atomic energy  EATOM  =       877.00502474
  Solvation  Ediel_sol  =         0.00000000
  ---------------------------------------------------
  free energy    TOTEN  =        -9.57100667 eV

  energy without entropy =       -9.51448439  energy(sigma->0) =       -9.54274553


--------------------------------------------------------------------------------------------------------




 average (electrostatic) potential at core
  the test charge radii are     0.5201  0.7215
  (the norm of the test charge is              1.0000)
       1 -49.5902       2 -83.2211       3 -83.2211
 
 
 
 E-fermi :  -7.1250     XC(G=0):  -1.1710     alpha+bet : -0.3547


 k-point     1 :       0.0000    0.0000    0.0000
  band No.  band energies     occupation 
      1     -30.8672      2.00000
      2     -21.5863      2.00000
      3     -13.8292      2.00000
      4     -11.4468      2.00000
      5     -10.8576      2.00000
      6      -7.3761      1.99962
      7      -7.1251      1.00038
      8      -3.6005      0.00000
      9      -0.4212      0.00000
     10       1.7231      0.00000
     11       1.8916      0.00000
     12       1.9834      0.00000
     13       2.0383      0.00000
     14       2.0640      0.00000
     15       2.2829      0.00000
     16       3.8755      0.00000
     17       4.1215      0.00000
     18       4.1375      0.00000
     19       4.1898      0.00000
     20       4.3532      0.00000
     21       4.4455      0.00000
     22       4.4857      0.00000
     23       4.4993      0.00000
     24       4.5032      0.00000
     25       4.5450      0.00000
     26       4.6722      0.00000
     27       5.0652      0.00000
     28       6.4359      0.00000
     29       6.5398      0.00000
     30       6.7149      0.00000
     31       6.7259      0.00000
     32       6.7636      0.00000
     33       6.8791      0.00000
     34       7.1459      0.00000
     35       7.1762      0.00000
     36       7.8457      0.00000
     37       8.8267      0.00000
     38       9.0091      0.00000
     39       9.1208      0.00000
     40       9.1324      0.00000
     41       9.6362      0.00000
     42      10.1049      0.00000
     43      10.1988      0.00000
     44      10.6803      0.00000
     45      10.7369      0.00000
     46      10.7742      0.00000
     47      11.1495      0.00000
     48      11.2490      0.00000
     49      11.2955      0.00000
     50      11.3062      0.00000
     51      11.3354      0.00000
     52      11.3465      0.00000
     53      11.3730      0.00000
     54      11.3942      0.00000
     55      11.5269      0.00000
     56      11.6026      0.00000
     57      11.6354      0.00000
     58      11.7699      0.00000
     59      11.7739      0.00000
     60      11.7780      0.00000
     61      11.8919      0.00000
     62      11.9166      0.00000
     63      11.9250      0.00000
     64      12.2473      0.00000


--------------------------------------------------------------------------------------------------------


 soft charge-density along one line, spin component           1
         0         1         2         3         4         5         6         7         8         9
 total charge-density along one line
 
 pseudopotential strength for first ion, spin component:           1
 -2.445  -4.234  -0.000   0.000  -0.003
 -4.234  -7.245  -0.000   0.000  -0.011
 -0.000  -0.000  -0.286  -0.000  -0.000
  0.000   0.000  -0.000  -0.300  -0.000
 -0.003  -0.011  -0.000  -0.000  -0.292
 total augmentation occupancy for first ion, spin component:           1
  5.670  -1.492   0.000   0.000   0.810
 -1.492   0.482   0.000   0.000  -0.211
  0.000   0.000   0.339   0.000   0.000
  0.000   0.000   0.000   0.078   0.000
  0.810  -0.211   0.000   0.000   0.171


------------------------ aborting loop because EDIFF is reached ----------------------------------------


    CHARGE:  cpu time    0.2560: real time    0.0636
    FORLOC:  cpu time    0.0040: real time    0.0005
    FORNL :  cpu time    0.0160: real time    0.0046
    STRESS:  cpu time    0.2400: real time    0.0612
    FORCOR:  cpu time    0.1320: real time    0.0332
    FORHAR:  cpu time    0.0320: real time    0.0088
    MIXING:  cpu time    0.0160: real time    0.0047
    OFIELD:  cpu time    0.0000: real time    0.0002

  FORCE on cell =-STRESS in cart. coord.  units (eV):
  Direction    XX          YY          ZZ          XY          YZ          ZX
  --------------------------------------------------------------------------------------
  Alpha Z     1.26728     1.26728     1.26728
  Ewald     -79.67270   321.72281  -147.56691     0.00000    -0.00000    -0.00000
  Hartree   214.30147   434.47642   189.31901    -0.00000    -0.00000    -0.00000
  E(xc)     -62.17843   -61.35441   -62.60970     0.00000     0.00000     0.00000
  Local    -326.08654  -890.84662  -230.57132     0.00000     0.00000     0.00000
  n-local   -54.28378   -45.92699   -46.71575     0.00000     0.00000     0.00000
  augment    14.80286     8.62986    12.49837     0.00000     0.00000    -0.00000
  Kinetic   297.00881   238.16336   282.78393     0.00000     0.00000    -0.00000
  Fock        0.00000     0.00000     0.00000     0.00000     0.00000     0.00000
  -------------------------------------------------------------------------------------
  Total       5.15896     6.13170    -1.59509     0.00000     0.00000     0.00000
  in kB      16.52679    19.64299    -5.10989     0.00000     0.00000     0.00000
  external pressure =       10.35 kB  Pullay stress =        0.00 kB


 VOLUME and BASIS-vectors are now :
 -----------------------------------------------------------------------------
  energy-cutoff  :      400.00
  volume of cell :      500.13
      direct lattice vectors                 reciprocal lattice vectors
     7.937700000  0.000000000  0.000000000     0.125981078  0.000000000  0.000000000
     0.000000000  7.937700000  0.000000000     0.000000000  0.125981078  0.000000000
     0.000000000  0.000000000  7.937700000     0.000000000  0.000000000  0.125981078

  length of vectors
     7.937700000  7.937700000  7.937700000     0.125981078  0.125981078  0.125981078


 FORCES acting on ions
    electron-ion (+dipol)            ewald-force                    non-local-force                 convergence-correction
 -----------------------------------------------------------------------------------------------
   0.948E+02 0.370E-14 0.128E-14   -.115E+03 0.142E-13 -.229E-16   0.802E+01 -.212E-26 -.193E-26   0.126E-03 0.138E-14 -.647E-14
   -.379E+02 0.249E+03 -.512E-05   0.574E+02 -.294E+03 0.174E-16   -.135E+02 0.401E+02 0.233E-26   -.261E-03 0.132E-02 -.692E-13
   -.379E+02 -.249E+03 -.264E-04   0.574E+02 0.294E+03 0.952E-16   -.135E+02 -.401E+02 -.220E-27   -.261E-03 -.132E-02 -.233E-13
 -----------------------------------------------------------------------------------------------
   0.189E+02 -.226E-12 -.315E-04   -.711E-14 0.000E+00 0.897E-16   -.189E+02 0.000E+00 0.187E-27   -.397E-03 0.516E-13 -.990E-13
 
 
 POSITION                                       TOTAL-FORCE (eV/Angst)
 -----------------------------------------------------------------------------------
      0.00000      0.00000      0.00000       -11.946639     -0.000000      0.000000
      0.58210      7.18097      0.00000         5.973320     -4.869094     -0.000000
      0.58210      0.75673      0.00000         5.973320      4.869094      0.000000
 -----------------------------------------------------------------------------------
    total drift:                                0.012990     -0.000000     -0.000031


--------------------------------------------------------------------------------------------------------



  FREE ENERGIE OF THE ION-ELECTRON SYSTEM (eV)
  ---------------------------------------------------
  free  energy   TOTEN  =        -9.57100667 eV

  energy  without entropy=       -9.51448439  energy(sigma->0) =       -9.54274553
 


--------------------------------------------------------------------------------------------------------


    POTLOK:  cpu time    0.2240: real time    0.0538


--------------------------------------------------------------------------------------------------------


 Quasi-Newton relaxation of ions (Broydens 2nd method)
  g(Force)  = 0.573E+01   g(Stress)= 0.000E+00

 Reset! Starting new Quasi-Newton update for ions 


--------------------------------------------------------------------------------------------------------


    WAVPRE:  cpu time   38.6400: real time    9.7776
    FEWALD:  cpu time    0.0040: real time    0.0008
    ORTHCH:  cpu time    0.0360: real time    0.0086
     LOOP+:  cpu time   59.2280: real time   14.9874


--------------------------------------- Iteration      2(   1)  ---------------------------------------


    POTLOK:  cpu time    0.1360: real time    0.0523
    SETDIJ:  cpu time    0.0280: real time    0.0077
     EDDAV:  cpu time    0.5560: real time    0.1387
       DOS:  cpu time    0.0080: real time    0.0024
    CHARGE:  cpu time    0.2280: real time    0.0563
    MIXING:  cpu time    0.0080: real time    0.0026
    --------------------------------------------
      LOOP:  cpu time    0.9680: real time    0.2605

 eigenvalue-minimisations  :   128
 total energy-change (2. order) : 0.4923776E+00  (-0.1333221E+03)
 number of electron      13.0000081 magnetization 
 augmentation part        1.0079246 magnetization 

 Broyden mixing:
  rms(total) = 0.84924E+00    rms(broyden)= 0.82542E+00
  rms(prec ) = 0.96674E+00
  weight for this iteration     100.00

 Free energy of the ion-electron system (eV)
  ---------------------------------------------------
  alpha Z        PSCENC =         1.26727950
  Ewald energy   TEWEN  =       -31.98734327
  -Hartree energ DENC   =      -739.89284941
  -exchange      EXHF   =         0.00000000
  -V(xc)+E(xc)   XCENC  =        56.95825206
  PAW double counting   =       940.42841803     -944.05870402
  entropy T*S    EENTRO =        -0.05853247
  eigenvalues    EBANDS =      -168.74015721
  atomic energy  EATOM  =       877.00502474
  Solvation  Ediel_sol  =         0.00000000
  ---------------------------------------------------
  free energy    TOTEN  =        -9.07861205 eV

  energy without entropy =       -9.02007958  energy(sigma->0) =       -9.04934582


--------------------------------------------------------------------------------------------------------




--------------------------------------- Iteration      2(   2)  ---------------------------------------


    POTLOK:  cpu time    0.2040: real time    0.0528
    SETDIJ:  cpu time    0.0320: real time    0.0078
     EDDAV:  cpu time    0.5680: real time    0.1426
       DOS:  cpu time    0.0120: real time    0.0030
    CHARGE:  cpu time    0.2200: real time    0.0545
    MIXING:  cpu time    0.0080: real time    0.0025
    --------------------------------------------
      LOOP:  cpu time    1.0440: real time    0.2633

 eigenvalue-minimisations  :   128
 total energy-change (2. order) :-0.1573924E+00  (-0.6452502E+00)
 number of electron      13.0000087 magnetization 
 augmentation part        1.0511080 magnetization 

 Broyden mixing:
  rms(total) = 0.43043E+00    rms(broyden)= 0.42850E+00
  rms(prec ) = 0.48389E+00
  weight for this iteration     100.00

 eigenvalues of (default mixing * dielectric matrix)
  average eigenvalue GAMMA=   1.5393
  1.5393

 Free energy of the ion-electron system (eV)
  ---------------------------------------------------
  alpha Z        PSCENC =         1.26727950
  Ewald energy   TEWEN  =       -31.98734327
  -Hartree energ DENC   =      -728.25431643
  -exchange      EXHF   =         0.00000000
  -V(xc)+E(xc)   XCENC  =        56.22875580
  PAW double counting   =       879.65433447     -883.19594174
  entropy T*S    EENTRO =        -0.06177315
  eigenvalues    EBANDS =      -179.89202439
  atomic energy  EATOM  =       877.00502474
  Solvation  Ediel_sol  =         0.00000000
  ---------------------------------------------------
  free energy    TOTEN  =        -9.23600448 eV

  energy without entropy =       -9.17423132  energy(sigma->0) =       -9.20511790


--------------------------------------------------------------------------------------------------------




--------------------------------------- Iteration      2(   3)  ---------------------------------------


    POTLOK:  cpu time    0.2320: real time    0.0636
    SETDIJ:  cpu time    0.0720: real time    0.0178
     EDDAV:  cpu time    1.1000: real time    0.2750
       DOS:  cpu time    0.0120: real time    0.0025
    CHARGE:  cpu time    0.2240: real time    0.0562
    MIXING:  cpu time    0.0080: real time    0.0024
    --------------------------------------------
      LOOP:  cpu time    1.6480: real time    0.4174

 eigenvalue-minimisations  :   192
 total energy-change (2. order) :-0.8665931E-01  (-0.2001390E-01)
 number of electron      13.0000088 magnetization 
 augmentation part        1.0489403 magnetization 

 Broyden mixing:
  rms(total) = 0.16693E+00    rms(broyden)= 0.16671E+00
  rms(prec ) = 0.18685E+00
  weight for this iteration     100.00

 eigenvalues of (default mixing * dielectric matrix)
  average eigenvalue GAMMA=   1.6792
  1.0479  2.3105

 Free energy of the ion-electron system (eV)
  ---------------------------------------------------
  alpha Z        PSCENC =         1.26727950
  Ewald energy   TEWEN  =       -31.98734327
  -Hartree energ DENC   =      -726.53746952
  -exchange      EXHF   =         0.00000000
  -V(xc)+E(xc)   XCENC  =        56.06740669
  PAW double counting   =       821.62695012     -825.13925777
  entropy T*S    EENTRO =        -0.06280641
  eigenvalues    EBANDS =      -181.56244785
  atomic energy  EATOM  =       877.00502474
  Solvation  Ediel_sol  =         0.00000000
  ---------------------------------------------------
  free energy    TOTEN  =        -9.32266378 eV

  energy without entropy =       -9.25985737  energy(sigma->0) =       -9.29126058


--------------------------------------------------------------------------------------------------------




--------------------------------------- Iteration      2(   4)  ---------------------------------------


    POTLOK:  cpu time    0.1880: real time    0.0516
    SETDIJ:  cpu time    0.0320: real time    0.0074
     EDDAV:  cpu time    1.0520: real time    0.2615
       DOS:  cpu time    0.0080: real time    0.0023
    CHARGE:  cpu time    0.2160: real time    0.0543
    MIXING:  cpu time    0.0120: real time    0.0029
    --------------------------------------------
      LOOP:  cpu time    1.5040: real time    0.3800

 eigenvalue-minimisations  :   192
 total energy-change (2. order) :-0.4538006E-01  (-0.2292083E-02)
 number of electron      13.0000088 magnetization 
 augmentation part        1.0472147 magnetization 

 Broyden mixing:
  rms(total) = 0.27096E-01    rms(broyden)= 0.26889E-01
  rms(prec ) = 0.33580E-01
  weight for this iteration     100.00

 eigenvalues of (default mixing * dielectric matrix)
  average eigenvalue GAMMA=   1.6857
  2.5051  1.0399  1.5122

 Free energy of the ion-electron system (eV)
  ---------------------------------------------------
  alpha Z        PSCENC =         1.26727950
  Ewald energy   TEWEN  =       -31.98734327
  -Hartree energ DENC   =      -726.03339277
  -exchange      EXHF   =         0.00000000
  -V(xc)+E(xc)   XCENC  =        56.00647652
  PAW double counting   =       784.97538664     -788.45818938
  entropy T*S    EENTRO =        -0.06320509
  eigenvalues    EBANDS =      -182.08008072
  atomic energy  EATOM  =       877.00502474
  Solvation  Ediel_sol  =         0.00000000
  ---------------------------------------------------
  free energy    TOTEN  =        -9.36804384 eV

  energy without entropy =       -9.30483875  energy(sigma->0) =       -9.33644130


--------------------------------------------------------------------------------------------------------




--------------------------------------- Iteration      2(   5)  ---------------------------------------


    POTLOK:  cpu time    0.1960: real time    0.0526
    SETDIJ:  cpu time    0.0320: real time    0.0074
     EDDAV:  cpu time    0.9880: real time    0.2470
       DOS:  cpu time    0.0080: real time    0.0025
    CHARGE:  cpu time    0.2200: real time    0.0550
    MIXING:  cpu time    0.0160: real time    0.0031
    --------------------------------------------
      LOOP:  cpu time    1.4600: real time    0.3677

 eigenvalue-minimisations  :   192
 total energy-change (2. order) :-0.2142495E-02  (-0.3158491E-03)
 number of electron      13.0000088 magnetization 
 augmentation part        1.0481559 magnetization 

 Broyden mixing:
  rms(total) = 0.55611E-02    rms(broyden)= 0.54896E-02
  rms(prec ) = 0.84875E-02
  weight for this iteration     100.00

 eigenvalues of (default mixing * dielectric matrix)
  average eigenvalue GAMMA=   1.5684
  2.5382  1.0442  1.0442  1.6470

 Free energy of the ion-electron system (eV)
  ---------------------------------------------------
  alpha Z        PSCENC =         1.26727950
  Ewald energy   TEWEN  =       -31.98734327
  -Hartree energ DENC   =      -725.86966676
  -exchange      EXHF   =         0.00000000
  -V(xc)+E(xc)   XCENC  =        55.99236070
  PAW double counting   =       777.80116939     -781.27102965
  entropy T*S    EENTRO =        -0.06235725
  eigenvalues    EBANDS =      -182.24562374
  atomic energy  EATOM  =       877.00502474
  Solvation  Ediel_sol  =         0.00000000
  ---------------------------------------------------
  free energy    TOTEN  =        -9.37018634 eV

  energy without entropy =       -9.30782909  energy(sigma->0) =       -9.33900771


--------------------------------------------------------------------------------------------------------




--------------------------------------- Iteration      2(   6)  ---------------------------------------


    POTLOK:  cpu time    0.2280: real time    0.0604
    SETDIJ:  cpu time    0.0280: real time    0.0074
     EDDAV:  cpu time    1.0480: real time    0.2618
       DOS:  cpu time    0.0080: real time    0.0022
    CHARGE:  cpu time    0.2240: real time    0.0551
    MIXING:  cpu time    0.0120: real time    0.0034
    --------------------------------------------
      LOOP:  cpu time    1.5480: real time    0.3904

 eigenvalue-minimisations  :   192
 total energy-change (2. order) :-0.4201665E-03  (-0.9103016E-05)
 number of electron      13.0000088 magnetization 
 augmentation part        1.0480137 magnetization 

 Broyden mixing:
  rms(total) = 0.24881E-02    rms(broyden)= 0.24857E-02
  rms(prec ) = 0.51599E-02
  weight for this iteration     100.00

 eigenvalues of (default mixing * dielectric matrix)
  average eigenvalue GAMMA=   1.6167
  2.5399  2.1236  1.4379  0.9442  1.0381

 Free energy of the ion-electron system (eV)
  ---------------------------------------------------
  alpha Z        PSCENC =         1.26727950
  Ewald energy   TEWEN  =       -31.98734327
  -Hartree energ DENC   =      -725.84240532
  -exchange      EXHF   =         0.00000000
  -V(xc)+E(xc)   XCENC  =        55.99260865
  PAW double counting   =       777.21187621     -780.68121247
  entropy T*S    EENTRO =        -0.06253977
  eigenvalues    EBANDS =      -182.27389478
  atomic energy  EATOM  =       877.00502474
  Solvation  Ediel_sol  =         0.00000000
  ---------------------------------------------------
  free energy    TOTEN  =        -9.37060651 eV

  energy without entropy =       -9.30806674  energy(sigma->0) =       -9.33933662


--------------------------------------------------------------------------------------------------------




--------------------------------------- Iteration      2(   7)  ---------------------------------------


    POTLOK:  cpu time    0.2120: real time    0.0564
    SETDIJ:  cpu time    0.0320: real time    0.0077
     EDDAV:  cpu time    1.0000: real time    0.2499
       DOS:  cpu time    0.0080: real time    0.0023
    CHARGE:  cpu time    0.2280: real time    0.0567
    MIXING:  cpu time    0.0120: real time    0.0038
    --------------------------------------------
      LOOP:  cpu time    1.4960: real time    0.3767

 eigenvalue-minimisations  :   192
 total energy-change (2. order) :-0.3799939E-03  (-0.5560038E-05)
 number of electron      13.0000088 magnetization 
 augmentation part        1.0479840 magnetization 

 Broyden mixing:
  rms(total) = 0.77933E-03    rms(broyden)= 0.77708E-03
  rms(prec ) = 0.28089E-02
  weight for this iteration     100.00

 eigenvalues of (default mixing * dielectric matrix)
  average eigenvalue GAMMA=   1.6398
  2.6400  2.4372  1.5720  0.9687  1.1332  1.0879

 Free energy of the ion-electron system (eV)
  ---------------------------------------------------
  alpha Z        PSCENC =         1.26727950
  Ewald energy   TEWEN  =       -31.98734327
  -Hartree energ DENC   =      -725.75741174
  -exchange      EXHF   =         0.00000000
  -V(xc)+E(xc)   XCENC  =        55.99049001
  PAW double counting   =       777.04101363     -780.50999503
  entropy T*S    EENTRO =        -0.06259435
  eigenvalues    EBANDS =      -182.35744998
  atomic energy  EATOM  =       877.00502474
  Solvation  Ediel_sol  =         0.00000000
  ---------------------------------------------------
  free energy    TOTEN  =        -9.37098650 eV

  energy without entropy =       -9.30839215  energy(sigma->0) =       -9.33968932


--------------------------------------------------------------------------------------------------------




--------------------------------------- Iteration      2(   8)  ---------------------------------------


    POTLOK:  cpu time    0.2160: real time    0.0570
    SETDIJ:  cpu time    0.0320: real time    0.0075
     EDDAV:  cpu time    1.0160: real time    0.2547
       DOS:  cpu time    0.0120: real time    0.0031
    CHARGE:  cpu time    0.2120: real time    0.0551
    MIXING:  cpu time    0.0160: real time    0.0035
    --------------------------------------------
      LOOP:  cpu time    1.5000: real time    0.3807

 eigenvalue-minimisations  :   192
 total energy-change (2. order) :-0.2171792E-03  (-0.3487289E-05)
 number of electron      13.0000088 magnetization 
 augmentation part        1.0480617 magnetization 

 Broyden mixing:
  rms(total) = 0.59605E-03    rms(broyden)= 0.59405E-03
  rms(prec ) = 0.15538E-02
  weight for this iteration     100.00

 eigenvalues of (default mixing * dielectric matrix)
  average eigenvalue GAMMA=   1.8711
  3.6715  2.5650  2.2141  1.5021  0.9869  1.0791  1.0791

 Free energy of the ion-electron system (eV)
  ---------------------------------------------------
  alpha Z        PSCENC =         1.26727950
  Ewald energy   TEWEN  =       -31.98734327
  -Hartree energ DENC   =      -725.66683278
  -exchange      EXHF   =         0.00000000
  -V(xc)+E(xc)   XCENC  =        55.98723151
  PAW double counting   =       777.08454917     -780.55331348
  entropy T*S    EENTRO =        -0.06253697
  eigenvalues    EBANDS =      -182.44526209
  atomic energy  EATOM  =       877.00502474
  Solvation  Ediel_sol  =         0.00000000
  ---------------------------------------------------
  free energy    TOTEN  =        -9.37120368 eV

  energy without entropy =       -9.30866671  energy(sigma->0) =       -9.33993520


--------------------------------------------------------------------------------------------------------




--------------------------------------- Iteration      2(   9)  ---------------------------------------


    POTLOK:  cpu time    0.2120: real time    0.0554
    SETDIJ:  cpu time    0.0320: real time    0.0074
     EDDAV:  cpu time    1.0120: real time    0.2521
       DOS:  cpu time    0.0120: real time    0.0029
    CHARGE:  cpu time    0.2240: real time    0.0564
    MIXING:  cpu time    0.0160: real time    0.0040
    --------------------------------------------
      LOOP:  cpu time    1.5080: real time    0.3781

 eigenvalue-minimisations  :   192
 total energy-change (2. order) :-0.1530703E-03  (-0.4008088E-05)
 number of electron      13.0000088 magnetization 
 augmentation part        1.0480677 magnetization 

 Broyden mixing:
  rms(total) = 0.21831E-03    rms(broyden)= 0.21788E-03
  rms(prec ) = 0.46221E-03
  weight for this iteration     100.00

 eigenvalues of (default mixing * dielectric matrix)
  average eigenvalue GAMMA=   1.9519
  4.4570  2.6181  2.2551  1.7501  1.4413  1.0463  1.0463  1.0013

 Free energy of the ion-electron system (eV)
  ---------------------------------------------------
  alpha Z        PSCENC =         1.26727950
  Ewald energy   TEWEN  =       -31.98734327
  -Hartree energ DENC   =      -725.61114156
  -exchange      EXHF   =         0.00000000
  -V(xc)+E(xc)   XCENC  =        55.98563701
  PAW double counting   =       777.26897025     -780.73804248
  entropy T*S    EENTRO =        -0.06254446
  eigenvalues    EBANDS =      -182.49919648
  atomic energy  EATOM  =       877.00502474
  Solvation  Ediel_sol  =         0.00000000
  ---------------------------------------------------
  free energy    TOTEN  =        -9.37135675 eV

  energy without entropy =       -9.30881229  energy(sigma->0) =       -9.34008452


--------------------------------------------------------------------------------------------------------




--------------------------------------- Iteration      2(  10)  ---------------------------------------


    POTLOK:  cpu time    0.1960: real time    0.0524
    SETDIJ:  cpu time    0.0320: real time    0.0077
     EDDAV:  cpu time    1.0160: real time    0.2539
       DOS:  cpu time    0.0080: real time    0.0023
    --------------------------------------------
      LOOP:  cpu time    1.2520: real time    0.3162

 eigenvalue-minimisations  :   192
 total energy-change (2. order) :-0.2031306E-04  (-0.1673847E-06)
 number of electron      13.0000088 magnetization 
 augmentation part        1.0480677 magnetization 

 Free energy of the ion-electron system (eV)
  ---------------------------------------------------
  alpha Z        PSCENC =         1.26727950
  Ewald energy   TEWEN  =       -31.98734327
  -Hartree energ DENC   =      -725.61559130
  -exchange      EXHF   =         0.00000000
  -V(xc)+E(xc)   XCENC  =        55.98604335
  PAW double counting   =       777.25344613     -780.72259392
  entropy T*S    EENTRO =        -0.06255957
  eigenvalues    EBANDS =      -182.49508272
  atomic energy  EATOM  =       877.00502474
  Solvation  Ediel_sol  =         0.00000000
  ---------------------------------------------------
  free energy    TOTEN  =        -9.37137706 eV

  energy without entropy =       -9.30881749  energy(sigma->0) =       -9.34009728


--------------------------------------------------------------------------------------------------------




 average (electrostatic) potential at core
  the test charge radii are     0.5201  0.7215
  (the norm of the test charge is              1.0000)
       1 -43.8869       2 -83.0196       3 -83.0196
 
 
 
 E-fermi :  -7.8900     XC(G=0):  -1.3137     alpha+bet : -0.3547


 k-point     1 :       0.0000    0.0000    0.0000
  band No.  band energies     occupation 
      1     -25.3176      2.00000
      2     -22.8490      2.00000
      3     -12.2177      2.00000
      4      -9.7189      2.00000
      5      -9.1617      2.00000
      6      -8.0386      1.96443
      7      -7.8932      1.03557
      8      -6.9071      0.00000
      9      -1.0335      0.00000
     10       0.6442      0.00000
     11       1.8212      0.00000
     12       1.8953      0.00000
     13       1.9217      0.00000
     14       1.9664      0.00000
     15       2.0428      0.00000
     16       3.0243      0.00000
     17       3.6901      0.00000
     18       4.0226      0.00000
     19       4.0682      0.00000
     20       4.1972      0.00000
     21       4.3497      0.00000
     22       4.3545      0.00000
     23       4.4027      0.00000
     24       4.4339      0.00000
     25       4.4971      0.00000
     26       4.6813      0.00000
     27       4.7255      0.00000
     28       5.7784      0.00000
     29       6.2724      0.00000
     30       6.4229      0.00000
     31       6.6932      0.00000
     32       6.6964      0.00000
     33       6.6978      0.00000
     34       6.9828      0.00000
     35       7.1404      0.00000
     36       7.4186      0.00000
     37       8.3789      0.00000
     38       8.7299      0.00000
     39       8.9887      0.00000
     40       9.0859      0.00000
     41       9.1866      0.00000
     42       9.7379      0.00000
     43       9.9052      0.00000
     44      10.4313      0.00000
     45      10.4792      0.00000
     46      10.6788      0.00000
     47      11.0085      0.00000
     48      11.0351      0.00000
     49      11.0966      0.00000
     50      11.1516      0.00000
     51      11.1959      0.00000
     52      11.3340      0.00000
     53      11.3491      0.00000
     54      11.3936      0.00000
     55      11.4008      0.00000
     56      11.4264      0.00000
     57      11.5203      0.00000
     58      11.6187      0.00000
     59      11.6230      0.00000
     60      11.6391      0.00000
     61      11.7655      0.00000
     62      11.7976      0.00000
     63      11.8619      0.00000
     64      12.2564      0.00000


--------------------------------------------------------------------------------------------------------


 soft charge-density along one line, spin component           1
         0         1         2         3         4         5         6         7         8         9
 total charge-density along one line
 
 pseudopotential strength for first ion, spin component:           1
 -2.385  -4.117  -0.000  -0.000  -0.001
 -4.117  -7.020  -0.000  -0.000  -0.003
 -0.000  -0.000  -0.333   0.000   0.000
 -0.000  -0.000   0.000  -0.334   0.000
 -0.001  -0.003   0.000   0.000  -0.333
 total augmentation occupancy for first ion, spin component:           1
  2.618  -0.595   0.000   0.000   0.214
 -0.595   0.158   0.000   0.000  -0.053
  0.000   0.000   0.054   0.000   0.000
  0.000   0.000   0.000   0.010   0.000
  0.214  -0.053   0.000   0.000   0.025


------------------------ aborting loop because EDIFF is reached ----------------------------------------


    CHARGE:  cpu time    0.2360: real time    0.0588
    FORLOC:  cpu time    0.0040: real time    0.0005
    FORNL :  cpu time    0.0160: real time    0.0041
    STRESS:  cpu time    0.2440: real time    0.0606
    FORCOR:  cpu time    0.1280: real time    0.0314
    FORHAR:  cpu time    0.0360: real time    0.0091
    MIXING:  cpu time    0.0160: real time    0.0040
    OFIELD:  cpu time    0.0000: real time    0.0003

  FORCE on cell =-STRESS in cart. coord.  units (eV):
  Direction    XX          YY          ZZ          XY          YZ          ZX
  --------------------------------------------------------------------------------------
  Alpha Z     1.26728     1.26728     1.26728
  Ewald     -90.81074   207.95594  -149.13264     0.00000     0.00000    -0.00000
  Hartree   180.97984   389.62536   155.00994    -0.00000    -0.00000    -0.00000
  E(xc)     -59.56134   -59.34463   -60.02366    -0.00000     0.00000    -0.00000
  Local    -280.16149  -748.15894  -189.33834    -0.00000     0.00000    -0.00000
  n-local   -49.60001   -38.11211   -45.12203     0.00000     0.00000     0.00000
  augment    13.73012     8.28841    12.13162     0.00000    -0.00000     0.00000
  Kinetic   280.65608   227.29470   273.58483     0.00000    -0.00000     0.00000
  Fock        0.00000     0.00000     0.00000     0.00000     0.00000     0.00000
  -------------------------------------------------------------------------------------
  Total      -3.50026   -11.18398    -1.62301     0.00000     0.00000     0.00000
  in kB     -11.21312   -35.82803    -5.19932     0.00000     0.00000     0.00000
  external pressure =      -17.41 kB  Pullay stress =        0.00 kB


 VOLUME and BASIS-vectors are now :
 -----------------------------------------------------------------------------
  energy-cutoff  :      400.00
  volume of cell :      500.13
      direct lattice vectors                 reciprocal lattice vectors
     7.937700000  0.000000000  0.000000000     0.125981078  0.000000000  0.000000000
     0.000000000  7.937700000  0.000000000     0.000000000  0.125981078  0.000000000
     0.000000000  0.000000000  7.937700000     0.000000000  0.000000000  0.125981078

  length of vectors
     7.937700000  7.937700000  7.937700000     0.125981078  0.125981078  0.125981078


 FORCES acting on ions
[...]
   28      set_dd_paw                            0.835476                            120   2
   29        set_rsgf_all                          0.000806                          120   3
   30      eddav                                25.191076                            114   2
   31        phase                                 0.000719                          114   3
   32        redis_proj                            0.696068                         1692   3
   33        redis_pw                              2.268418                         1383   3
   34        w1_copy                               0.049074                         1269   3
   35        fftwav_mpi                            0.519336                          423   3
   36          fftwav                                0.510436                        423   4
   37            fft3d                                 0.416312                      423   5
   38        eccp                                  0.021121                          114   3
   39        truncate_high_frequency_w1            0.003237                          537   3
   40        setup_precond                         0.006094                          114   3
   41        hamiltmu                              1.045727                          423   3
   42          vhamil                                0.107454                        423   4
   43          overl1                                0.011709                        423   4
   44          vnlac0                                0.274853                        423   4
   45            gemm                                  0.159250                     1269   5
   46            work_mul_crexp                        0.066017                     1269   5
   47          kinhamil                              0.590305                        423   4
   48            fftext_mpi                            0.565073                      423   5
   49              fft3d_mpi                             0.406902                    423   6
   50                fft3d                                 0.396041                  423   7
   51        overl                                 0.017568                          732   3
   52        orth1                                 0.517812                         1155   3
   53        apply_precond                         0.019465                          309   3
   54        w1_projall                            0.119204                          309   3
   55          proj1                                 0.111241                        309   4
   56      set_charge                            5.554293                            100   2
   57        soft_charge                           1.095099                          100   3
   58          fftwav_mpi                            0.109962                        100   4
   59            fftwav                                0.107894                      100   5
   60              fft3d                                 0.089644                    100   6
   61          pw_charge                             0.013752                        100   4
   62          fft3d_mpi                             0.406497                        100   4
   63            fftbas_plan_mpi                       0.281755                      100   5
   64              dfftw_execute                         0.035201                    300   6
   65              map_backward                          0.221910                    200   6
   66                map_gather                            0.013528                  200   7
   67                m_alltoallv_z                         0.193326                  200   7
   68                map_scatter                           0.004943                  200   7
   69        depsum                                0.048659                          100   3
   70        fft3d_mpi                             0.245043                          100   3
   71          fftbas_plan_mpi                       0.237503                        100   4
   72            dfftw_execute                         0.017706                      300   5
   73            map_backward                          0.191467                      200   5
   74              map_gather                            0.003020                    100   6
   75              m_alltoallv_z                         0.178104                    100   6
   76              map_scatter                           0.004524                    100   6
   77      brmix                                 0.308370                            100   2
   78        brpre                                 0.007928                          100   3
   79        setg0                                 0.055831                          110   3
   80        broyd                                 0.172880                          100   3
   81          brsav                                 0.009339                        990   4
   82          brget                                 0.024755                       3225   4
   83      force_and_stress                      1.872338                             10   2
   84        set_charge                            0.570955                           10   3
   85          soft_charge                           0.122617                         10   4
   86            fftwav_mpi                            0.012066                       10   5
   87              fftwav                                0.011861                     10   6
   88                fft3d                                 0.009701                   10   7
   89            pw_charge                             0.001382                       10   5
   90            fft3d_mpi                             0.048177                       10   5
   91              fftbas_plan_mpi                       0.035463                     10   6
   92                dfftw_execute                         0.003659                   30   7
   93                map_backward                          0.029161                   20   7
   94                  map_gather                            0.001405                 20   8
   95                  m_alltoallv_z                         0.026175                 20   8
   96                  map_scatter                           0.000534                 20   8
   97          depsum                                0.003523                         10   4
   98          fft3d_mpi                             0.026495                         10   4
   99            fftbas_plan_mpi                       0.025756                       10   5
  100              dfftw_execute                         0.001778                     30   6
  101              map_backward                          0.021029                     20   6
  102                map_gather                            0.000305                   10   7
  103                m_alltoallv_z                         0.019684                   10   7
  104                map_scatter                           0.000455                   10   7
  105        forloc                                0.004925                           10   3
  106        fornl                                 0.023762                           10   3
  107          phase                                 0.000059                         10   4
  108        fordep                                0.017673                           10   3
  109          setdij_                               0.016152                         60   4
  110        setdij_                               0.048093                          200   3
  111        set_dd_paw                            0.067786                           10   3
  112          set_rsgf_all                          0.000065                         10   4
  113        strkin                                0.002756                           10   3
  114        strelo                                0.008074                           10   3
  115        strenl                                0.540496                           10   3
  116          spher                                 0.500910                        190   4
  117          phase                                 0.000656                         90   4
  118          proj1                                 0.026683                         90   4
  119        fft3d_mpi                             0.273968                          110   3
  120          fftbas_plan_mpi                       0.265298                        110   4
  121            dfftw_execute                         0.019176                      330   5
  122            map_forward                           0.095034                      100   5
  123              map_gather                            0.001121                     50   6
  124              m_alltoallv_z                         0.088653                     50   6
  125              map_scatter                           0.002392                     50   6
  126            map_backward                          0.121105                      120   5
  127              map_gather                            0.001741                     60   6
  128              m_alltoallv_z                         0.113603                     60   6
  129              map_scatter                           0.002338                     60   6
  130        ggaall_grid                           0.004563                           10   3
  131        forhar                                0.008617                           20   3
  132        strehar                               0.005424                           10   3
  133        chggra                                0.080471                           10   3
  134          fft3d_mpi                             0.070377                         30   4
  135            fftbas_plan_mpi                       0.067837                       30   5
  136              dfftw_execute                         0.005113                     90   6
  137              map_forward                           0.033802                     40   6
  138                map_gather                            0.000466                   20   7
  139                m_alltoallv_z                         0.031255                   20   7
  140                map_scatter                           0.000949                   20   7
  141              map_backward                          0.020749                     20   6
  142                map_gather                            0.000286                   10   7
  143                m_alltoallv_z                         0.019530                   10   7
  144                map_scatter                           0.000366                   10   7
  145        brmix                                 0.042893                           10   3
  146          brpre                                 0.000907                         10   4
  147          setg0                                 0.005342                         10   4
  148          broyd                                 0.030488                         10   4
  149            brsav                                 0.001429                      153   5
  150            brget                                 0.004720                      590   5
 
 Flat profile
 ============
 
             routine name                   CPU           calls
 ---------------------------------------------------------------
 total_time                             30.637594           1
 eddav                                  19.907233         114
 set_charge                              4.583812         110
 m_alltoallv_z                           3.473529        2162
 redis_pw                                2.313943        1403
 fft3d                                   0.911698         956
 set_dd_paw                              0.902391         130
 redis_proj                              0.708443        1722
 soft_charge                             0.625880         110
 fftbas_plan_mpi                         0.549699        1932
 orth1                                   0.521305        1165
 spher                                   0.507498         191
 fft3d_mpi                               0.428006        2355
 dfftw_execute                           0.393103        5796
 force_and_stress                        0.171880          10
 broyd                                   0.163126         110
 gemm                                    0.159250        1269
 fftext_mpi                              0.158171         423
 proj1                                   0.141368         409
 fftwav                                  0.114535         533
 vhamil                                  0.107454         423
 map_scatter                             0.104410        2162
 setdij_                                 0.104037         381
 brmix                                   0.077888         110
 work_mul_crexp                          0.066017        1269
 map_gather                              0.065125        2162
 map_backward                            0.064083        2020
 hamiltmu                                0.061406         423
 setg0                                   0.061173         120
 map_forward                             0.059218        1844
 ggaall_grid                             0.055119         130
 depsum                                  0.052182         110
 vnlac0                                  0.049586         423
 w1_copy                                 0.049074        1269
 brget                                   0.029475        3815
 kinhamil                                0.025232         423
 fornl                                   0.023703          10
 eccp                                    0.021121         114
 apply_precond                           0.019465         309
 overl                                   0.017792         742
 orthch                                  0.017018          10
 pw_charge                               0.015134         110
 phase                                   0.014686         234
 strenl                                  0.012246          10
 overl1                                  0.011709         423
 fftwav_mpi                              0.011172         533
 brsav                                   0.010767        1143
 chggra                                  0.010094          10
 brpre                                   0.008834         110
 forhar                                  0.008617          20
 strelo                                  0.008074          10
 w1_projall                              0.007962         309
 choleski                                0.006399          10
 brgrid                                  0.006188           1
 setup_precond                           0.006094         114
 strehar                                 0.005424          10
 forloc                                  0.004925          10
 lincom                                  0.004048          10
 truncate_high_frequency_w1              0.003237         537
 strkin                                  0.002756          10
 fordep                                  0.001521          10
 set_rsgf_all                            0.000871         130
 proj                                    0.000293          10
 redis_pw_over_bands                     0.000062          10
 ---------------------------------------------------------------
  summed up times    68.6641590595245     
 
 Accumulative profile
 ====================
 
             routine name                   CPU           calls
 ---------------------------------------------------------------
 total_time                             68.664159           1
 eddav                                  25.191076         114
 set_charge                              6.125249         110
 fft3d_mpi                               5.533215        2355
 fftbas_plan_mpi                         4.709168        1932
 m_alltoallv_z                           3.473529        2162
 redis_pw                                2.313943        1403
 map_backward                            2.064635        2020
 force_and_stress                        1.872338          10
 map_forward                             1.701731        1844
 soft_charge                             1.217716         110
 hamiltmu                                1.045727         423
 fft3d                                   0.911698         956
 set_dd_paw                              0.903262         130
 redis_proj                              0.708443        1722
 fftwav_mpi                              0.641364         533
 fftwav                                  0.630192         533
 kinhamil                                0.590305         423
 fftext_mpi                              0.565073         423
 strenl                                  0.540496          10
 orth1                                   0.521305        1165
 spher                                   0.507498         191
 dfftw_execute                           0.393103        5796
 brmix                                   0.351264         110
 vnlac0                                  0.274853         423
 broyd                                   0.203368         110
 gemm                                    0.159250        1269
 proj1                                   0.141368         409
 w1_projall                              0.119204         309
 vhamil                                  0.107454         423
 map_scatter                             0.104410        2162
 setdij_                                 0.104037         381
 orthch                                  0.089081          10
 chggra                                  0.080471          10
 work_mul_crexp                          0.066017        1269
 map_gather                              0.065125        2162
 setg0                                   0.061173         120
 ggaall_grid                             0.055119         130
 depsum                                  0.052182         110
 w1_copy                                 0.049074        1269
 brget                                   0.029475        3815
 fornl                                   0.023762          10
 eccp                                    0.021121         114
 apply_precond                           0.019465         309
 overl                                   0.017792         742
 fordep                                  0.017673          10
 pw_charge                               0.015134         110
 phase                                   0.014686         234
 overl1                                  0.011709         423
 brsav                                   0.010767        1143
 brpre                                   0.008834         110
 forhar                                  0.008617          20
 strelo                                  0.008074          10
 choleski                                0.006399          10
 brgrid                                  0.006188           1
 setup_precond                           0.006094         114
 strehar                                 0.005424          10
 forloc                                  0.004925          10
 lincom                                  0.004048          10
 proj                                    0.003737          10
 truncate_high_frequency_w1              0.003237         537
 strkin                                  0.002756          10
 set_rsgf_all                            0.000871         130
 redis_pw_over_bands                     0.000062          10
 ---------------------------------------------------------------
 
Profiling took   0.204425  0.237199  0.017899  0.016915 seconds
Profiling took   0.198475 seconds
