Starting Cobalt job script
/soft/applications/vasp/vasp6-dev/bin/vasp_std
 ----------------------------------------------------
    OOO  PPPP  EEEEE N   N M   M PPPP
   O   O P   P E     NN  N MM MM P   P
   O   O PPPP  EEEEE N N N M M M PPPP   -- VERSION
   O   O P     E     N  NN M   M P
    OOO  P     EEEEE N   N M   M P
 ----------------------------------------------------
 running   32 mpi-ranks, with    4 threads/rank
 distrk:  each k-point on   32 cores,    1 groups
 distr:  one band on    1 cores,   32 groups
 using from now: INCAR     
 vasp.5.4.4 18Apr17 (build Sep 25 2018 18:50:45) complex                        
  
 POSCAR found :  2 types and       3 ions
 scaLAPACK will be used
 LDA part: xc-table for Pade appr. of Perdew
 POSCAR, INCAR and KPOINTS ok, starting setup
 FFT: planning ...
 WAVECAR not read
 entering main loop
       N       E                     dE             d eps       ncg     rms          rms(c)
DAV:   1     0.860186998666E+02    0.86019E+02   -0.33696E+03    64   0.190E+02
DAV:   2    -0.963599655852E+01   -0.95655E+02   -0.95655E+02   128   0.538E+01
DAV:   3    -0.102420045418E+02   -0.60601E+00   -0.60601E+00    64   0.826E+00
DAV:   4    -0.102433592631E+02   -0.13547E-02   -0.13547E-02    96   0.408E-01
DAV:   5    -0.102433595282E+02   -0.26505E-06   -0.26408E-06    64   0.557E-03    0.695E+00
DAV:   6    -0.967846746210E+01    0.56489E+00   -0.78284E-01    96   0.228E+00    0.363E+00
DAV:   7    -0.956791359808E+01    0.11055E+00   -0.28391E-01    64   0.141E+00    0.978E-01
DAV:   8    -0.956429852815E+01    0.36151E-02   -0.20383E-02   128   0.490E-01    0.102E-01
DAV:   9    -0.956559065923E+01   -0.12921E-02   -0.14715E-03    64   0.949E-02    0.505E-02
DAV:  10    -0.956738672784E+01   -0.17961E-02   -0.30268E-04   128   0.480E-02    0.271E-02
DAV:  11    -0.956949829821E+01   -0.21116E-02   -0.36181E-04    64   0.361E-02    0.143E-02
DAV:  12    -0.957046282061E+01   -0.96452E-03   -0.10937E-04    64   0.190E-02    0.718E-03
DAV:  13    -0.957081149920E+01   -0.34868E-03   -0.36221E-05    64   0.113E-02    0.310E-03
DAV:  14    -0.957099029246E+01   -0.17879E-03   -0.16794E-05   128   0.701E-03    0.107E-03
DAV:  15    -0.957099933290E+01   -0.90404E-05   -0.16526E-07    64   0.825E-04
   1 F= -.95709993E+01 E0= -.95427382E+01  d E =-.957100E+01
 BRION: g(F)=  0.573E+01 g(S)=  0.000E+00
 bond charge predicted
       N       E                     dE             d eps       ncg     rms          rms(c)
DAV:   1    -0.795704579593E+01    0.16139E+01   -0.13219E+03    64   0.108E+02    0.929E+00
DAV:   2    -0.926125484948E+01   -0.13042E+01   -0.21148E+01    64   0.148E+01    0.470E+00
DAV:   3    -0.928132573316E+01   -0.20071E-01   -0.27489E-01   128   0.154E+00    0.256E+00
DAV:   4    -0.936853262560E+01   -0.87207E-01   -0.11166E-01    64   0.905E-01    0.555E-01
DAV:   5    -0.936888314913E+01   -0.35052E-03   -0.12292E-02    64   0.294E-01    0.169E-01
DAV:   6    -0.937044904964E+01   -0.15659E-02   -0.18811E-03    64   0.125E-01    0.709E-02
DAV:   7    -0.937081495176E+01   -0.36590E-03   -0.32040E-04   128   0.476E-02    0.149E-02
DAV:   8    -0.937108223565E+01   -0.26728E-03   -0.29556E-05    64   0.126E-02    0.113E-02
DAV:   9    -0.937129627971E+01   -0.21404E-03   -0.45142E-05    64   0.121E-02    0.523E-03
DAV:  10    -0.937140372835E+01   -0.10745E-03   -0.25278E-05    64   0.924E-03    0.235E-03
DAV:  11    -0.937141395096E+01   -0.10223E-04   -0.76910E-07    96   0.206E-03
   2 F= -.93714140E+01 E0= -.93401373E+01  d E =0.199585E+00
 BRION: g(F)=  0.258E+01 g(S)=  0.000E+00 retain N=  1 mean eig= 0.61
 eig:   0.610
 bond charge predicted
       N       E                     dE             d eps       ncg     rms          rms(c)
DAV:   1    -0.107256516291E+02   -0.13542E+01   -0.25695E+02    64   0.499E+01    0.375E+00
DAV:   2    -0.107846944366E+02   -0.59043E-01   -0.12588E+00    64   0.455E+00    0.207E+00
DAV:   3    -0.107948196392E+02   -0.10125E-01   -0.22060E-01   128   0.124E+00    0.551E-01
DAV:   4    -0.107903144011E+02    0.45052E-02   -0.11570E-02    64   0.262E-01    0.280E-01
DAV:   5    -0.107905643521E+02   -0.24995E-03   -0.63253E-03   128   0.199E-01    0.423E-02
DAV:   6    -0.107908005302E+02   -0.23618E-03   -0.87592E-05    64   0.264E-02    0.857E-03
DAV:   7    -0.107909249080E+02   -0.12438E-03   -0.84817E-06    64   0.755E-03    0.487E-03
DAV:   8    -0.107911184211E+02   -0.19351E-03   -0.19070E-05    64   0.834E-03    0.332E-03
DAV:   9    -0.107912046561E+02   -0.86235E-04   -0.86671E-06    96   0.524E-03
   3 F= -.10791205E+02 E0= -.10762679E+02  d E =-.141979E+01
 BRION: g(F)=  0.139E+01 g(S)=  0.000E+00 retain N=  2 mean eig=84.32
 eig:   0.614168.017
 bond charge predicted
       N       E                     dE             d eps       ncg     rms          rms(c)
DAV:   1     0.242595176086E+02    0.35051E+02   -0.49187E+03    64   0.143E+02    0.178E+01
DAV:   2    -0.751584939762E+01   -0.31775E+02   -0.38956E+02    64   0.503E+01    0.157E+01
DAV:   3    -0.327542682307E+01    0.42404E+01   -0.92088E+00    64   0.832E+00    0.101E+01
DAV:   4    -0.215589852064E+01    0.11195E+01   -0.34662E+00    64   0.268E+00    0.643E+00
DAV:   5    -0.241295125311E+01   -0.25705E+00   -0.90019E+00   128   0.357E+00    0.786E+00
DAV:   6    -0.201475751975E+01    0.39819E+00   -0.11021E+00    64   0.965E-01    0.335E+00
DAV:   7    -0.198818197230E+01    0.26576E-01   -0.98781E-01   128   0.819E-01    0.219E+00
DAV:   8    -0.240355889640E+01   -0.41538E+00   -0.30968E+00   128   0.210E+00    0.643E+00
DAV:   9    -0.211439538255E+01    0.28916E+00   -0.15212E+00    64   0.910E-01    0.182E+00
DAV:  10    -0.214764109455E+01   -0.33246E-01   -0.53092E-02    96   0.484E-01    0.125E+00
DAV:  11    -0.215649176954E+01   -0.88507E-02   -0.25857E-03    64   0.140E-01    0.973E-01
DAV:  12    -0.215948078793E+01   -0.29890E-02   -0.77375E-03    64   0.130E-01    0.542E-01
DAV:  13    -0.216288997041E+01   -0.34092E-02   -0.64906E-03    96   0.884E-02    0.329E-01
DAV:  14    -0.216418491171E+01   -0.12949E-02   -0.36967E-03   128   0.518E-02    0.114E-01
DAV:  15    -0.216540661300E+01   -0.12217E-02   -0.11891E-04    64   0.367E-02    0.566E-02
DAV:  16    -0.216567332202E+01   -0.26671E-03   -0.31638E-05    96   0.181E-02    0.268E-02
DAV:  17    -0.216574818208E+01   -0.74860E-04   -0.66112E-06    64   0.846E-03
   4 F= -.21657482E+01 E0= -.20810206E+01  d E =0.862546E+01
 BRION: g(F)=  0.527E-01 g(S)=  0.000E+00 retain N=  2 mean eig=19.02
 eig:   1.914 36.129
 bond charge predicted
       N       E                     dE             d eps       ncg     rms          rms(c)
DAV:   1    -0.206933725630E+01    0.96336E-01   -0.44483E+02    64   0.649E+01    0.441E+00
DAV:   2    -0.236314413756E+01   -0.29381E+00   -0.52090E+00    64   0.604E+00    0.459E+00
DAV:   3    -0.233087333253E+01    0.32271E-01   -0.37106E+00    64   0.885E-01    0.828E+00
DAV:   4    -0.224917941669E+01    0.81694E-01   -0.44574E+00    64   0.898E-01    0.369E+00
DAV:   5    -0.220205930670E+01    0.47120E-01   -0.84774E-02    64   0.380E-01    0.263E+00
DAV:   6    -0.219739316144E+01    0.46661E-02   -0.34784E-01    64   0.294E-01    0.249E+00
DAV:   7    -0.219876420568E+01   -0.13710E-02   -0.16660E-01    64   0.285E-01    0.113E+00
DAV:   8    -0.220517896956E+01   -0.64148E-02   -0.26053E-03    96   0.982E-02    0.166E+00
DAV:   9    -0.219599526846E+01    0.91837E-02   -0.62157E-02    64   0.101E-01    0.357E-01
DAV:  10    -0.219822750378E+01   -0.22322E-02   -0.74151E-04    64   0.633E-02    0.103E-01
DAV:  11    -0.219838837229E+01   -0.16087E-03   -0.42598E-05    64   0.155E-02    0.136E-01
DAV:  12    -0.219862360328E+01   -0.23523E-03   -0.14967E-04    64   0.140E-02    0.634E-02
DAV:  13    -0.219875797608E+01   -0.13437E-03   -0.39452E-05    96   0.105E-02    0.378E-02
DAV:  14    -0.219879578393E+01   -0.37808E-04   -0.13031E-05    64   0.516E-03
   5 F= -.21987958E+01 E0= -.21075661E+01  d E =-.330476E-01
 BRION: g(F)=  0.195E+00 g(S)=  0.000E+00 retain N=  2 mean eig=*****
 eig:  11.044210.666
 bond charge predicted
       N       E                     dE             d eps       ncg     rms          rms(c)
DAV:   1     0.139025441622E+00    0.23378E+01   -0.23165E+03    64   0.135E+02    0.539E+00
DAV:   2    -0.312136828180E+01   -0.32604E+01   -0.33142E+01    64   0.175E+01    0.820E+00
DAV:   3    -0.275468638114E+01    0.36668E+00   -0.80700E-01    64   0.172E+00    0.434E+00
DAV:   4    -0.276438196686E+01   -0.96956E-02   -0.10842E-01    64   0.504E-01    0.320E+00
DAV:   5    -0.284259486298E+01   -0.78213E-01   -0.34040E-01    64   0.114E+00    0.186E+00
DAV:   6    -0.289049256300E+01   -0.47898E-01   -0.50555E-02    64   0.616E-01    0.105E+00
DAV:   7    -0.290465620530E+01   -0.14164E-01   -0.32425E-02    96   0.455E-01    0.464E-01
DAV:   8    -0.290846462245E+01   -0.38084E-02   -0.30914E-03    64   0.122E-01    0.283E-01
DAV:   9    -0.291093677860E+01   -0.24722E-02   -0.75686E-03    64   0.161E-01    0.814E-01
DAV:  10    -0.290606911072E+01    0.48677E-02   -0.17191E-02    64   0.137E-01    0.344E-01
DAV:  11    -0.291240522759E+01   -0.63361E-02   -0.45667E-03    64   0.125E-01    0.262E-01
DAV:  12    -0.291252054886E+01   -0.11532E-03   -0.10114E-03    64   0.579E-02    0.436E-02
DAV:  13    -0.291342063378E+01   -0.90008E-03   -0.54641E-05    64   0.297E-02    0.242E-02
DAV:  14    -0.291365133754E+01   -0.23070E-03   -0.58067E-05    64   0.110E-02    0.368E-02
DAV:  15    -0.291366786254E+01   -0.16525E-04   -0.14989E-05    64   0.861E-03
   6 F= -.29136679E+01 E0= -.28023747E+01  d E =-.714872E+00
 BRION: g(F)=  0.246E+00 g(S)=  0.000E+00 retain N=  1 mean eig= 3.53
 eig:   3.526
 bond charge predicted
       N       E                     dE             d eps       ncg     rms          rms(c)
DAV:   1    -0.156293627702E+01    0.13507E+01   -0.82991E+02    64   0.881E+01    0.595E+00
DAV:   2    -0.234943588983E+01   -0.78650E+00   -0.12102E+01    64   0.960E+00    0.652E+00
DAV:   3    -0.215741974224E+01    0.19202E+00   -0.80537E-01    64   0.141E+00    0.167E+00
DAV:   4    -0.223024106756E+01   -0.72821E-01   -0.45514E-02    64   0.459E-01    0.981E-01
DAV:   5    -0.223960075378E+01   -0.93597E-02   -0.51688E-03    64   0.188E-01    0.466E-01
DAV:   6    -0.224450519059E+01   -0.49044E-02   -0.69148E-03    96   0.181E-01    0.297E-01
DAV:   7    -0.224566896896E+01   -0.11638E-02   -0.48646E-03    96   0.133E-01    0.131E-01
DAV:   8    -0.224619400035E+01   -0.52503E-03   -0.97772E-04    64   0.385E-02    0.193E-01
DAV:   9    -0.224617362943E+01    0.20371E-04   -0.30318E-04    64   0.587E-02
   7 F= -.22461736E+01 E0= -.21564136E+01  d E =0.667494E+00
 BRION: g(F)=  0.804E-01 g(S)=  0.000E+00 retain N=  2 mean eig=*****
 eig:   3.386531.741
 bond charge predicted
       N       E                     dE             d eps       ncg     rms          rms(c)
DAV:   1    -0.189411577009E+01    0.35208E+00   -0.94391E+02    64   0.928E+01    0.534E+00
DAV:   2    -0.385225785294E+01   -0.19581E+01   -0.26651E+01    64   0.991E+00    0.766E+00
DAV:   3    -0.263421219167E+01    0.12180E+01   -0.10474E+00    64   0.165E+00    0.552E+00
DAV:   4    -0.316663033556E+01   -0.53242E+00   -0.12065E+01    64   0.131E+00    0.959E+00
DAV:   5    -0.376404883586E+01   -0.59742E+00   -0.14825E-01   128   0.148E+00    0.103E+01
DAV:   6    -0.245744690774E+01    0.13066E+01   -0.18656E-01    64   0.131E+00    0.822E+00
DAV:   7    -0.232559480046E+01    0.13185E+00   -0.15140E+00    96   0.479E-01    0.218E+00
DAV:   8    -0.240676816390E+01   -0.81173E-01   -0.40650E-02    64   0.450E-01    0.264E+00
DAV:   9    -0.242938656154E+01   -0.22618E-01   -0.45581E-01    96   0.257E-01    0.347E+00
DAV:  10    -0.245600647677E+01   -0.26620E-01   -0.59587E-03    64   0.226E-01    0.390E+00
DAV:  11    -0.241550945534E+01    0.40497E-01   -0.51589E-03    64   0.881E-02    0.345E+00
DAV:  12    -0.238108742366E+01    0.34422E-01   -0.63612E-02    96   0.837E-02    0.877E-01
DAV:  13    -0.239347635366E+01   -0.12389E-01   -0.28072E-03    64   0.102E-01    0.584E-01
DAV:  14    -0.239833568157E+01   -0.48593E-02   -0.48215E-04    64   0.996E-02    0.478E-01
DAV:  15    -0.239811789628E+01    0.21779E-03   -0.26172E-04    64   0.337E-02    0.191E-01
DAV:  16    -0.239834815542E+01   -0.23026E-03   -0.27708E-05    64   0.125E-02    0.102E-01
DAV:  17    -0.239855451774E+01   -0.20636E-03   -0.27392E-05    64   0.938E-03    0.171E-01
DAV:  18    -0.239850707456E+01    0.47443E-04   -0.52229E-05   128   0.482E-03
   8 F= -.23985071E+01 E0= -.23126016E+01  d E =-.152333E+00
 BRION: g(F)=  0.526E+00 g(S)=  0.000E+00 retain N=  2 mean eig=38.09
 eig:  10.539 65.643
 bond charge predicted
       N       E                     dE             d eps       ncg     rms          rms(c)
DAV:   1    -0.241137087310E+01   -0.12816E-01   -0.15463E-01    64   0.121E+00    0.130E-01
DAV:   2    -0.241852242856E+01   -0.71516E-02   -0.62812E-03    64   0.133E-01    0.185E+00
DAV:   3    -0.240787450509E+01    0.10648E-01   -0.51213E-03    64   0.932E-02    0.103E-01
DAV:   4    -0.241126346837E+01   -0.33890E-02   -0.18528E-04    64   0.664E-02    0.324E-02
DAV:   5    -0.241141428526E+01   -0.15082E-03   -0.15614E-05   128   0.161E-02    0.219E-02
DAV:   6    -0.241143335310E+01   -0.19068E-04   -0.24319E-06    64   0.628E-03
   9 F= -.24114334E+01 E0= -.23258109E+01  d E =-.129263E-01
 BRION: g(F)=  0.550E+00 g(S)=  0.000E+00 retain N=  1 mean eig= 1.05
 eig:   1.049
 bond charge predicted
       N       E                     dE             d eps       ncg     rms          rms(c)
DAV:   1    -0.202313418593E+01    0.38828E+00   -0.30909E+02    64   0.538E+01    0.526E+00
DAV:   2    -0.300859003679E+01   -0.98546E+00   -0.14467E+01    64   0.456E+00    0.100E+01
DAV:   3    -0.212755383432E+01    0.88104E+00   -0.75873E+00    64   0.195E+00    0.508E+00
DAV:   4    -0.198685353357E+01    0.14070E+00   -0.21987E-01    64   0.619E-01    0.194E+00
DAV:   5    -0.206601386595E+01   -0.79160E-01   -0.19571E-01    64   0.486E-01    0.295E+00
DAV:   6    -0.205433813414E+01    0.11676E-01   -0.10672E-01    64   0.404E-01    0.782E-01
DAV:   7    -0.206838364459E+01   -0.14046E-01   -0.12940E-02    64   0.187E-01    0.824E-01
DAV:   8    -0.206770831983E+01    0.67532E-03   -0.22055E-03    64   0.174E-01    0.344E-01
DAV:   9    -0.206956423299E+01   -0.18559E-02   -0.44563E-04    96   0.423E-02    0.219E-01
DAV:  10    -0.207064948918E+01   -0.10853E-02   -0.25623E-04    96   0.251E-02    0.145E-01
DAV:  11    -0.207129030883E+01   -0.64082E-03   -0.47277E-04    96   0.222E-02    0.965E-02
DAV:  12    -0.207171846253E+01   -0.42815E-03   -0.42279E-04    96   0.322E-02    0.110E-01
DAV:  13    -0.207170539350E+01    0.13069E-04   -0.33049E-04    64   0.126E-02
  10 F= -.20717054E+01 E0= -.19856422E+01  d E =0.339728E+00
 BRION: g(F)=  0.132E-01 g(S)=  0.000E+00 retain N=  1 mean eig= 1.22
 eig:   1.216
 writing wavefunctions
Application 9860445 resources: utime ~5590s, stime ~491s, Rss ~65888, inblocks ~0, outblocks ~36408
