 vasp.5.4.4 18Apr17 (build Sep 25 2018 18:50:45) complex                        
  
 executed on           IFC17_impi date 2018.12.04  04:24:14
 running   32 mpi-ranks, with    4 threads/rank
 distrk:  each k-point on   32 cores,    1 groups
 distr:  one band on NCORES_PER_BAND=   1 cores,   32 groups


--------------------------------------------------------------------------------------------------------


 INCAR:
 POTCAR:    PAW_PBE H 15Jun2001                   
 POTCAR:    PAW_PBE O 08Apr2002                   
 POTCAR:    PAW_PBE H 15Jun2001                   
   VRHFIN =H: ultrasoft test                                                    
   LEXCH  = PE                                                                  
   EATOM  =    12.4884 eV,    0.9179 Ry                                         
                                                                                
   TITEL  = PAW_PBE H 15Jun2001                                                 
   LULTRA =        F    use ultrasoft PP ?                                      
   IUNSCR =        0    unscreen: 0-lin 1-nonlin 2-no                           
   RPACOR =    0.000    partial core radius                                     
   POMASS =    1.000; ZVAL   =    1.000    mass and valenz                      
   RCORE  =    1.100    outmost cutoff radius                                   
   RWIGS  =    0.700; RWIGS  =    0.370    wigner-seitz radius (au A)           
   ENMAX  =  250.000; ENMIN  =  200.000 eV                                      
   RCLOC  =    0.701    cutoff for local pot                                    
   LCOR   =        T    correct aug charges                                     
   LPAW   =        T    paw PP                                                  
   EAUG   =  400.000                                                            
   RMAX   =    1.123    core radius for proj-oper                               
   RAUG   =    1.200    factor for augmentation sphere                          
   RDEP   =    1.112    radius for radial grids                                 
   RDEPT  =    0.926    core radius for aug-charge                              
                                                                                
   Atomic configuration                                                         
    2 entries                                                                   
     n  l   j            E        occ.                                          
     1  0  0.50        -6.4927   1.0000                                         
     2  1  0.50        -3.4015   0.0000                                         
   Description                                                                  
     l       E           TYP  RCUT    TYP  RCUT                                 
     0     -6.4927494     23  1.100                                             
     0      6.8029130     23  1.100                                             
     1     -4.0817478     23  1.100                                             
  local pseudopotential read in
  atomic valenz-charges read in
  non local Contribution for L=           0  read in
    real space projection operators read in
  non local Contribution for L=           0  read in
    real space projection operators read in
  non local Contribution for L=           1  read in
    real space projection operators read in
    PAW grid and wavefunctions read in
 
   number of l-projection  operators is LMAX  =           3
   number of lm-projection operators is LMMAX =           5
 
 POTCAR:    PAW_PBE O 08Apr2002                   
   VRHFIN =O: s2p4                                                              
   LEXCH  = PE                                                                  
   EATOM  =   432.3788 eV,   31.7789 Ry                                         
                                                                                
   TITEL  = PAW_PBE O 08Apr2002                                                 
   LULTRA =        F    use ultrasoft PP ?                                      
   IUNSCR =        1    unscreen: 0-lin 1-nonlin 2-no                           
   RPACOR =    1.200    partial core radius                                     
   POMASS =   16.000; ZVAL   =    6.000    mass and valenz                      
   RCORE  =    1.520    outmost cutoff radius                                   
   RWIGS  =    1.550; RWIGS  =    0.820    wigner-seitz radius (au A)           
   ENMAX  =  400.000; ENMIN  =  300.000 eV                                      
   ICORE  =        2    local potential                                         
   LCOR   =        T    correct aug charges                                     
   LPAW   =        T    paw PP                                                  
   EAUG   =  605.392                                                            
   DEXC   =    0.000                                                            
   RMAX   =    1.553    core radius for proj-oper                               
   RAUG   =    1.300    factor for augmentation sphere                          
   RDEP   =    1.550    radius for radial grids                                 
   RDEPT  =    1.329    core radius for aug-charge                              
                                                                                
   Atomic configuration                                                         
    4 entries                                                                   
     n  l   j            E        occ.                                          
     1  0  0.50      -514.6923   2.0000                                         
     2  0  0.50       -23.9615   2.0000                                         
     2  1  0.50        -9.0305   4.0000                                         
     3  2  1.50        -9.5241   0.0000                                         
   Description                                                                  
     l       E           TYP  RCUT    TYP  RCUT                                 
     0    -23.9615318     23  1.200                                             
     0     -9.5240782     23  1.200                                             
     1     -9.0304911     23  1.520                                             
     1      8.1634956     23  1.520                                             
     2     -9.5240782      7  1.500                                             
  local pseudopotential read in
  partial core-charges read in
  partial kinetic energy density read in
  kinetic energy density of atom read in
  atomic valenz-charges read in
  non local Contribution for L=           0  read in
    real space projection operators read in
  non local Contribution for L=           0  read in
    real space projection operators read in
  non local Contribution for L=           1  read in
    real space projection operators read in
  non local Contribution for L=           1  read in
    real space projection operators read in
    PAW grid and wavefunctions read in
 
   number of l-projection  operators is LMAX  =           4
   number of lm-projection operators is LMMAX =           8
 
  PAW_PBE H 15Jun2001                   :
 energy of atom  1       EATOM=  -12.4884
 kinetic energy error for atom=    0.0098 (will be added to EATOM!!)
  PAW_PBE O 08Apr2002                   :
 energy of atom  2       EATOM= -432.3788
 kinetic energy error for atom=    0.1156 (will be added to EATOM!!)
 
 
 POSCAR: H2O _2                                  
  positions in cartesian coordinates
  No initial velocities read in
 exchange correlation table for  LEXCH =        8
   RHO(1)=    0.500       N(1)  =     2000
   RHO(2)=  100.500       N(2)  =     4000
 


--------------------------------------------------------------------------------------------------------


 ion  position               nearest neighbor table
   1  0.000  0.000  0.000-   2 0.95   3 0.95
   2  0.073  0.905  0.000-   1 0.95   3 1.51
   3  0.073  0.095  0.000-   1 0.95   2 1.51
 
  LATTYP: Found a simple cubic cell.
 ALAT       =     7.9377000000
  
  Lattice vectors:
  
 A1 = (   7.9377000000,   0.0000000000,   0.0000000000)
 A2 = (   0.0000000000,   7.9377000000,   0.0000000000)
 A3 = (   0.0000000000,   0.0000000000,   7.9377000000)


Analysis of symmetry for initial positions (statically):
=====================================================================
 Subroutine PRICEL returns:
 Original cell was already a primitive cell.
 

 Routine SETGRP: Setting up the symmetry group for a 
 simple cubic supercell.


 Subroutine GETGRP returns: Found  4 space group operations
 (whereof  4 operations were pure point group operations)
 out of a pool of 48 trial point group operations.


The static configuration has the point symmetry C_2v.


Analysis of symmetry for dynamics (positions and initial velocities):
=====================================================================
 Subroutine PRICEL returns:
 Original cell was already a primitive cell.
 

 Routine SETGRP: Setting up the symmetry group for a 
 simple cubic supercell.


 Subroutine GETGRP returns: Found  4 space group operations
 (whereof  4 operations were pure point group operations)
 out of a pool of 48 trial point group operations.


The dynamic configuration has the point symmetry C_2v.


Analysis of constrained symmetry for selective dynamics:
=====================================================================
 Subroutine PRICEL returns:
 Original cell was already a primitive cell.
 

 Routine SETGRP: Setting up the symmetry group for a 
 simple cubic supercell.


 Subroutine GETGRP returns: Found  4 space group operations
 (whereof  4 operations were pure point group operations)
 out of a pool of 48 trial point group operations.


The constrained configuration has the point symmetry C_2v.


 Subroutine INISYM returns: Found  4 space group operations
 (whereof  4 operations are pure point group operations),
 and found     1 'primitive' translations

 
 
 KPOINTS: Gamma-point only                        

Automatic generation of k-mesh.
Space group operators:
 irot       det(A)        alpha          n_x          n_y          n_z        tau_x        tau_y        tau_z
    1     1.000000     0.000001     1.000000     0.000000     0.000000     0.000000     0.000000     0.000000
    2    -1.000000   180.000000     0.000000     0.000000     1.000000     0.000000     0.000000     0.000000
    3     1.000000   180.000000     1.000000     0.000000     0.000000     0.000000     0.000000     0.000000
    4    -1.000000   180.000000     0.000000     1.000000     0.000000     0.000000     0.000000     0.000000
 
 Subroutine IBZKPT returns following result:
 ===========================================
 
 Found      1 irreducible k-points:
 
 Following reciprocal coordinates:
            Coordinates               Weight
  0.000000  0.000000  0.000000      1.000000
 
 Following cartesian coordinates:
            Coordinates               Weight
  0.000000  0.000000  0.000000      1.000000
 


--------------------------------------------------------------------------------------------------------




 Dimension of arrays:
   k-points           NKPTS =      1   k-points in BZ     NKDIM =      1   number of bands    NBANDS=     32
   number of dos      NEDOS =    301   number of ions     NIONS =      3
   non local maximal  LDIM  =      4   non local SUM 2l+1 LMDIM =      8
   total plane-waves  NPLWV =  64000
   max r-space proj   IRMAX =      1   max aug-charges    IRDMAX=   1860
   dimension x,y,z NGX =    40 NGY =   40 NGZ =   40
   dimension x,y,z NGXF=    80 NGYF=   80 NGZF=   80
   support grid    NGXF=    80 NGYF=   80 NGZF=   80
   ions per type =               1   2
   NGX,Y,Z   is equivalent  to a cutoff of   8.38,  8.38,  8.38 a.u.
   NGXF,Y,Z  is equivalent  to a cutoff of  16.76, 16.76, 16.76 a.u.

 SYSTEM =  unknown system                          
 POSCAR =  H2O _2                                  

 Startparameter for this run:
   NWRITE =      2    write-flag & timer
   PREC   = normal    normal or accurate (medium, high low for compatibility)
   ISTART =      0    job   : 0-new  1-cont  2-samecut
   ICHARG =      2    charge: 1-file 2-atom 10-const
   ISPIN  =      1    spin polarized calculation?
   LNONCOLLINEAR =      F non collinear calculations
   LSORBIT =      F    spin-orbit coupling
   INIWAV =      1    electr: 0-lowe 1-rand  2-diag
   LASPH  =      F    aspherical Exc in radial PAW
   METAGGA=      F    non-selfconsistent MetaGGA calc.

 Electronic Relaxation 1
   ENCUT  =  400.0 eV  29.40 Ry    5.42 a.u.  12.94 12.94 12.94*2*pi/ulx,y,z
   ENINI  =  400.0     initial cutoff
   ENAUG  =  605.4 eV  augmentation charge cutoff
   NELM   =     60;   NELMIN=  2; NELMDL= -5     # of ELM steps 
   EDIFF  = 0.1E-03   stopping-criterion for ELM
   LREAL  =      F    real-space projection
   NLSPLINE    = F    spline interpolate recip. space projectors
   LCOMPAT=      F    compatible to vasp.4.4
   GGA_COMPAT  = T    GGA compatible to vasp.4.4-vasp.4.6
   LMAXPAW     = -100 max onsite density
   LMAXMIX     =    2 max onsite mixed and CHGCAR
   VOSKOWN=      0    Vosko Wilk Nusair interpolation
   ROPT   =    0.00000   0.00000
 Ionic relaxation
   EDIFFG = -.2E-01   stopping-criterion for IOM
   NSW    =     10    number of steps for IOM
   NBLOCK =      1;   KBLOCK =     10    inner block; outer block 
   IBRION =      1    ionic relax: 0-MD 1-quasi-New 2-CG
   NFREE  =      2    steps in history (QN), initial steepest desc. (CG)
   ISIF   =      2    stress and relaxation
   IWAVPR =     11    prediction:  0-non 1-charg 2-wave 3-comb
   ISYM   =      2    0-nonsym 1-usesym 2-fastsym
   LCORR  =      T    Harris-Foulkes like correction to forces

   POTIM  = 0.5000    time-step for ionic-motion
   TEIN   =    0.0    initial temperature
   TEBEG  =    0.0;   TEEND  =   0.0 temperature during run
   SMASS  =  -3.00    Nose mass-parameter (am)
   estimated Nose-frequenzy (Omega)   =  0.10E-29 period in steps =****** mass=  -0.144E-26a.u.
   SCALEE = 1.0000    scale energy and forces
   NPACO  =    256;   APACO  = 16.0  distance and # of slots for P.C.
   PSTRESS=    0.0 pullay stress

  Mass of Ions in am
   POMASS =   1.00 16.00
  Ionic Valenz
   ZVAL   =   1.00  6.00
  Atomic Wigner-Seitz radii
   RWIGS  =  -1.00 -1.00
  virtual crystal weights 
   VCA    =   1.00  1.00
   NELECT =      13.0000    total number of electrons
   NUPDOWN=      -1.0000    fix difference up-down

 DOS related values:
   EMIN   =  10.00;   EMAX   =-10.00  energy-range for DOS
   EFERMI =   0.00
   ISMEAR =     0;   SIGMA  =   0.10  broadening in eV -4-tet -1-fermi 0-gaus

 Electronic relaxation 2 (details)
   IALGO  =     38    algorithm
   LDIAG  =      T    sub-space diagonalisation (order eigenvalues)
   LSUBROT=      F    optimize rotation matrix (better conditioning)
   TURBO    =      0    0=normal 1=particle mesh
   IRESTART =      0    0=no restart 2=restart with 2 vectors
   NREBOOT  =      0    no. of reboots
   NMIN     =      0    reboot dimension
   EREF     =   0.00    reference energy to select bands
   IMIX   =      4    mixing-type and parameters
     AMIX     =   0.40;   BMIX     =  1.00
     AMIX_MAG =   1.60;   BMIX_MAG =  1.00
     AMIN     =   0.10
     WC   =   100.;   INIMIX=   1;  MIXPRE=   1;  MAXMIX= -45

 Intra band minimization:
   WEIMIN = 0.0010     energy-eigenvalue tresh-hold
   EBREAK =  0.78E-06  absolut break condition
   DEPER  =   0.30     relativ break condition  

   TIME   =   0.40     timestep for ELM

  volume/ion in A,a.u.               =     166.71      1125.02
  Fermi-wavevector in a.u.,A,eV,Ry     =   0.484947  0.916418  3.199736  0.235174
  Thomas-Fermi vector in A             =   1.484914
 
 Write flags
   LWAVE        =      T    write WAVECAR
   LDOWNSAMPLE  =      F    k-point downsampling of WAVECAR
   LCHARG       =      T    write CHGCAR
   LVTOT        =      F    write LOCPOT, total local potential
   LVHAR        =      F    write LOCPOT, Hartree potential only
   LELF         =      F    write electronic localiz. function (ELF)
   LORBIT       =      0    0 simple, 1 ext, 2 COOP (PROOUT), +10 PAW based schemes


 Dipole corrections
   LMONO  =      F    monopole corrections only (constant potential shift)
   LDIPOL =      F    correct potential (dipole corrections)
   IDIPOL =      0    1-x, 2-y, 3-z, 4-all directions 
   EPSILON=  1.0000000 bulk dielectric constant

 Exchange correlation treatment:
   GGA     =    --    GGA type
   LEXCH   =     8    internal setting for exchange type
   VOSKOWN=      0    Vosko Wilk Nusair interpolation
   LHFCALC =     F    Hartree Fock is set to
   LHFONE  =     F    Hartree Fock one center treatment
   AEXX    =    0.0000 exact exchange contribution

 Linear response parameters
   LEPSILON=     F    determine dielectric tensor
   LRPA    =     F    only Hartree local field effects (RPA)
   LNABLA  =     F    use nabla operator in PAW spheres
   LVEL    =     F    velocity operator in full k-point grid
   LINTERFAST=   F  fast interpolation
   KINTER  =     0    interpolate to denser k-point grid
   CSHIFT  =0.1000    complex shift for real part using Kramers Kronig
   OMEGAMAX=  -1.0    maximum frequency
   DEG_THRESHOLD= 0.2000000E-02 threshold for treating states as degnerate
   RTIME   =   -0.100 relaxation time in fs
  (WPLASMAI=    0.000 imaginary part of plasma frequency in eV, 0.658/RTIME)
   DFIELD  = 0.0000000 0.0000000 0.0000000 field for delta impulse in time
 
 Orbital magnetization related:
   ORBITALMAG=     F  switch on orbital magnetization
   LCHIMAG   =     F  perturbation theory with respect to B field
   DQ        =  0.001000  dq finite difference perturbation B field
   LLRAUG    =     F  two centre corrections for induced B field



--------------------------------------------------------------------------------------------------------


 quasi-Newton-method for relaxation of ions
   using selective dynamics as specified on POSCAR
   WARNING: If single coordinates had been selected the selection of coordinates
            is made according to the corresponding   d i r e c t   coordinates!
            Don't support selection of single cartesian coordinates -- sorry ...
  !
 charge density and potential will be updated during run
 non-spin polarized calculation
 Variant of blocked Davidson
 Davidson routine will perform the subspace rotation
 perform sub-space diagonalisation
    after iterative eigenvector-optimisation
 modified Broyden-mixing scheme, WC =      100.0
 initial mixing is a Kerker type mixing with AMIX =  0.4000 and BMIX =      1.0000
 Hartree-type preconditioning will be used
 using additional bands           25
 reciprocal scheme for non local part
 use partial core corrections
 calculate Harris-corrections to forces 
   (improved forces if not selfconsistent)
 use gradient corrections 
 use of overlap-Matrix (Vanderbilt PP)
 Gauss-broadening in eV      SIGMA  =   0.10


--------------------------------------------------------------------------------------------------------


  energy-cutoff  :      400.00
  volume of cell :      500.13
      direct lattice vectors                 reciprocal lattice vectors
     7.937700000  0.000000000  0.000000000     0.125981078  0.000000000  0.000000000
     0.000000000  7.937700000  0.000000000     0.000000000  0.125981078  0.000000000
     0.000000000  0.000000000  7.937700000     0.000000000  0.000000000  0.125981078

  length of vectors
     7.937700000  7.937700000  7.937700000     0.125981078  0.125981078  0.125981078


 
 k-points in units of 2pi/SCALE and weight: Gamma-point only                        
   0.00000000  0.00000000  0.00000000       1.000
 
 k-points in reciprocal lattice and weights: Gamma-point only                        
   0.00000000  0.00000000  0.00000000       1.000
 
 position of ions in fractional coordinates (direct lattice) 
   0.00000000  0.00000000  0.00000000
   0.07333333  0.90466667  0.00000000
   0.07333333  0.09533333  0.00000000
 
 position of ions in cartesian coordinates  (Angst):
   0.00000000  0.00000000  0.00000000
   0.58209800  7.18097260  0.00000000
   0.58209800  0.75672740  0.00000000
 


--------------------------------------------------------------------------------------------------------


 k-point  1 :   0.0000 0.0000 0.0000  plane waves:    9045

 maximum and minimum number of plane-waves per node :      9045     9045

 maximum number of plane-waves:      9045
 maximum index in each direction: 
   IXMAX=   12   IYMAX=   12   IZMAX=   12
   IXMIN=  -12   IYMIN=  -12   IZMIN=  -12


 serial   3D FFT for wavefunctions
 parallel 3D FFT for charge:
    minimum data exchange during FFTs selected (reduces bandwidth)


 total amount of memory used by VASP MPI-rank0    36341. kBytes
=======================================================================

   base      :      30000. kBytes
   nonl-proj :       1593. kBytes
   fftplans  :        914. kBytes
   grid      :       3680. kBytes
   one-center:          9. kBytes
   wavefun   :        145. kBytes
 
     INWAV:  cpu time    0.0000: real time    0.0001
 Broyden mixing: mesh for mixing (old mesh)
   NGX = 25   NGY = 25   NGZ = 25
  (NGX  = 80   NGY  = 80   NGZ  = 80)
  gives a total of  15625 points

 initial charge density was supplied:
 charge density of overlapping atoms calculated
 number of electron      13.0000000 magnetization 
 keeping initial charge density in first step


--------------------------------------------------------------------------------------------------------


 Maximum index for augmentation-charges           89 (set IRDMAX)


--------------------------------------------------------------------------------------------------------


 First call to EWALD:  gamma=   0.223
 Maximum number of real-space cells 3x 3x 3
 Maximum number of reciprocal cells 3x 3x 3

    FEWALD:  cpu time    0.0280: real time    0.0066


--------------------------------------- Iteration      1(   1)  ---------------------------------------


    POTLOK:  cpu time    0.2320: real time    0.0615
    SETDIJ:  cpu time    0.0320: real time    0.0087
     EDDAV:  cpu time    0.3000: real time    0.0735
       DOS:  cpu time    0.0040: real time    0.0019
    --------------------------------------------
      LOOP:  cpu time    0.5680: real time    0.1458

 eigenvalue-minimisations  :    64
 total energy-change (2. order) : 0.8601870E+02  (-0.3369566E+03)
 number of electron      13.0000000 magnetization 
 augmentation part       13.0000000 magnetization 

 Free energy of the ion-electron system (eV)
  ---------------------------------------------------
  alpha Z        PSCENC =         1.26727950
  Ewald energy   TEWEN  =        94.48331469
  -Hartree energ DENC   =      -816.33685448
  -exchange      EXHF   =         0.00000000
  -V(xc)+E(xc)   XCENC  =        57.20351130
  PAW double counting   =       695.23298122     -698.83920033
  entropy T*S    EENTRO =        -0.05641896
  eigenvalues    EBANDS =      -123.94093780
  atomic energy  EATOM  =       877.00502474
  Solvation  Ediel_sol  =         0.00000000
  ---------------------------------------------------
  free energy    TOTEN  =        86.01869987 eV

  energy without entropy =       86.07511883  energy(sigma->0) =       86.04690935


--------------------------------------------------------------------------------------------------------




--------------------------------------- Iteration      1(   2)  ---------------------------------------


     EDDAV:  cpu time    0.6640: real time    0.1657
       DOS:  cpu time    0.0080: real time    0.0018
    --------------------------------------------
      LOOP:  cpu time    0.6720: real time    0.1675

 eigenvalue-minimisations  :   128
 total energy-change (2. order) :-0.9565470E+02  (-0.9565470E+02)
 number of electron      13.0000000 magnetization 
 augmentation part       13.0000000 magnetization 

 Free energy of the ion-electron system (eV)
  ---------------------------------------------------
  alpha Z        PSCENC =         1.26727950
  Ewald energy   TEWEN  =        94.48331469
  -Hartree energ DENC   =      -816.33685448
  -exchange      EXHF   =         0.00000000
  -V(xc)+E(xc)   XCENC  =        57.20351130
  PAW double counting   =       695.23298122     -698.83920033
  entropy T*S    EENTRO =        -0.05641896
  eigenvalues    EBANDS =      -219.59563423
  atomic energy  EATOM  =       877.00502474
  Solvation  Ediel_sol  =         0.00000000
  ---------------------------------------------------
  free energy    TOTEN  =        -9.63599656 eV

  energy without entropy =       -9.57957760  energy(sigma->0) =       -9.60778708


--------------------------------------------------------------------------------------------------------




--------------------------------------- Iteration      1(   3)  ---------------------------------------


     EDDAV:  cpu time    0.2680: real time    0.0681
       DOS:  cpu time    0.0080: real time    0.0019
    --------------------------------------------
      LOOP:  cpu time    0.2760: real time    0.0701

 eigenvalue-minimisations  :    64
 total energy-change (2. order) :-0.6060080E+00  (-0.6060080E+00)
 number of electron      13.0000000 magnetization 
 augmentation part       13.0000000 magnetization 

 Free energy of the ion-electron system (eV)
  ---------------------------------------------------
  alpha Z        PSCENC =         1.26727950
  Ewald energy   TEWEN  =        94.48331469
  -Hartree energ DENC   =      -816.33685448
  -exchange      EXHF   =         0.00000000
  -V(xc)+E(xc)   XCENC  =        57.20351130
  PAW double counting   =       695.23298122     -698.83920033
  entropy T*S    EENTRO =        -0.05641896
  eigenvalues    EBANDS =      -220.20164221
  atomic energy  EATOM  =       877.00502474
  Solvation  Ediel_sol  =         0.00000000
  ---------------------------------------------------
  free energy    TOTEN  =       -10.24200454 eV

  energy without entropy =      -10.18558558  energy(sigma->0) =      -10.21379506


--------------------------------------------------------------------------------------------------------




--------------------------------------- Iteration      1(   4)  ---------------------------------------


     EDDAV:  cpu time    0.3880: real time    0.0985
       DOS:  cpu time    0.0080: real time    0.0020
    --------------------------------------------
      LOOP:  cpu time    0.3960: real time    0.1005

 eigenvalue-minimisations  :    96
 total energy-change (2. order) :-0.1354721E-02  (-0.1354722E-02)
 number of electron      13.0000000 magnetization 
 augmentation part       13.0000000 magnetization 

 Free energy of the ion-electron system (eV)
  ---------------------------------------------------
  alpha Z        PSCENC =         1.26727950
  Ewald energy   TEWEN  =        94.48331469
  -Hartree energ DENC   =      -816.33685448
  -exchange      EXHF   =         0.00000000
  -V(xc)+E(xc)   XCENC  =        57.20351130
  PAW double counting   =       695.23298122     -698.83920033
  entropy T*S    EENTRO =        -0.05641896
  eigenvalues    EBANDS =      -220.20299693
  atomic energy  EATOM  =       877.00502474
  Solvation  Ediel_sol  =         0.00000000
  ---------------------------------------------------
  free energy    TOTEN  =       -10.24335926 eV

  energy without entropy =      -10.18694030  energy(sigma->0) =      -10.21514978


--------------------------------------------------------------------------------------------------------




--------------------------------------- Iteration      1(   5)  ---------------------------------------


     EDDAV:  cpu time    0.2600: real time    0.0659
       DOS:  cpu time    0.0080: real time    0.0019
    CHARGE:  cpu time    0.2320: real time    0.0587
    MIXING:  cpu time    0.0160: real time    0.0033
    --------------------------------------------
      LOOP:  cpu time    0.5160: real time    0.1299

 eigenvalue-minimisations  :    64
 total energy-change (2. order) :-0.2650461E-06  (-0.2640850E-06)
 number of electron      13.0000109 magnetization 
 augmentation part        1.2060287 magnetization 

 Broyden mixing:
  rms(total) = 0.69457E+00    rms(broyden)= 0.68136E+00
  rms(prec ) = 0.82464E+00
  weight for this iteration     100.00

 Free energy of the ion-electron system (eV)
  ---------------------------------------------------
  alpha Z        PSCENC =         1.26727950
  Ewald energy   TEWEN  =        94.48331469
  -Hartree energ DENC   =      -816.33685448
  -exchange      EXHF   =         0.00000000
  -V(xc)+E(xc)   XCENC  =        57.20351130
  PAW double counting   =       695.23298122     -698.83920033
  entropy T*S    EENTRO =        -0.05641896
  eigenvalues    EBANDS =      -220.20299720
  atomic energy  EATOM  =       877.00502474
  Solvation  Ediel_sol  =         0.00000000
  ---------------------------------------------------
  free energy    TOTEN  =       -10.24335953 eV

  energy without entropy =      -10.18694057  energy(sigma->0) =      -10.21515005


--------------------------------------------------------------------------------------------------------




--------------------------------------- Iteration      1(   6)  ---------------------------------------


    POTLOK:  cpu time    0.1600: real time    0.0411
    SETDIJ:  cpu time    0.0280: real time    0.0073
     EDDAV:  cpu time    0.3720: real time    0.0933
       DOS:  cpu time    0.0080: real time    0.0019
    CHARGE:  cpu time    0.2160: real time    0.0541
    MIXING:  cpu time    0.0160: real time    0.0032
    --------------------------------------------
      LOOP:  cpu time    0.8000: real time    0.2011

 eigenvalue-minimisations  :    96
 total energy-change (2. order) : 0.5648921E+00  (-0.7828409E-01)
 number of electron      13.0000106 magnetization 
 augmentation part        1.1671542 magnetization 

 Broyden mixing:
  rms(total) = 0.36298E+00    rms(broyden)= 0.36238E+00
  rms(prec ) = 0.42768E+00
  weight for this iteration     100.00

 eigenvalues of (default mixing * dielectric matrix)
  average eigenvalue GAMMA=   1.8873
  1.8873

 Free energy of the ion-electron system (eV)
  ---------------------------------------------------
  alpha Z        PSCENC =         1.26727950
  Ewald energy   TEWEN  =        94.48331469
  -Hartree energ DENC   =      -828.27319317
  -exchange      EXHF   =         0.00000000
  -V(xc)+E(xc)   XCENC  =        57.96435926
  PAW double counting   =       789.45765114     -793.15607438
  entropy T*S    EENTRO =        -0.05641896
  eigenvalues    EBANDS =      -208.37041028
  atomic energy  EATOM  =       877.00502474
  Solvation  Ediel_sol  =         0.00000000
  ---------------------------------------------------
  free energy    TOTEN  =        -9.67846746 eV

  energy without entropy =       -9.62204850  energy(sigma->0) =       -9.65025798


--------------------------------------------------------------------------------------------------------




--------------------------------------- Iteration      1(   7)  ---------------------------------------


    POTLOK:  cpu time    0.1520: real time    0.0395
    SETDIJ:  cpu time    0.0320: real time    0.0073
     EDDAV:  cpu time    0.2280: real time    0.0569
       DOS:  cpu time    0.0080: real time    0.0020
    CHARGE:  cpu time    0.1960: real time    0.0495
    MIXING:  cpu time    0.0120: real time    0.0031
    --------------------------------------------
      LOOP:  cpu time    0.6320: real time    0.1583

 eigenvalue-minimisations  :    64
 total energy-change (2. order) : 0.1105539E+00  (-0.2839089E-01)
 number of electron      13.0000105 magnetization 
 augmentation part        1.1456216 magnetization 

 Broyden mixing:
  rms(total) = 0.97828E-01    rms(broyden)= 0.97749E-01
  rms(prec ) = 0.11802E+00
  weight for this iteration     100.00

 eigenvalues of (default mixing * dielectric matrix)
  average eigenvalue GAMMA=   1.9101
  1.4161  2.4042

 Free energy of the ion-electron system (eV)
  ---------------------------------------------------
  alpha Z        PSCENC =         1.26727950
  Ewald energy   TEWEN  =        94.48331469
  -Hartree energ DENC   =      -836.53306497
  -exchange      EXHF   =         0.00000000
  -V(xc)+E(xc)   XCENC  =        58.46628368
  PAW double counting   =       902.77787955     -906.48039452
  entropy T*S    EENTRO =        -0.05642103
  eigenvalues    EBANDS =      -200.49781523
  atomic energy  EATOM  =       877.00502474
  Solvation  Ediel_sol  =         0.00000000
  ---------------------------------------------------
  free energy    TOTEN  =        -9.56791360 eV

  energy without entropy =       -9.51149257  energy(sigma->0) =       -9.53970308


--------------------------------------------------------------------------------------------------------




--------------------------------------- Iteration      1(   8)  ---------------------------------------


    POTLOK:  cpu time    0.1560: real time    0.0397
    SETDIJ:  cpu time    0.0280: real time    0.0073
     EDDAV:  cpu time    0.5320: real time    0.1331
       DOS:  cpu time    0.0080: real time    0.0019
    CHARGE:  cpu time    0.1920: real time    0.0482
    MIXING:  cpu time    0.0160: real time    0.0033
    --------------------------------------------
      LOOP:  cpu time    0.9280: real time    0.2335

 eigenvalue-minimisations  :   128
 total energy-change (2. order) : 0.3615070E-02  (-0.2038321E-02)
 number of electron      13.0000105 magnetization 
 augmentation part        1.1497548 magnetization 

 Broyden mixing:
  rms(total) = 0.10192E-01    rms(broyden)= 0.10164E-01
  rms(prec ) = 0.23835E-01
  weight for this iteration     100.00

 eigenvalues of (default mixing * dielectric matrix)
  average eigenvalue GAMMA=   1.7851
  2.3875  1.3598  1.6079

 Free energy of the ion-electron system (eV)
  ---------------------------------------------------
  alpha Z        PSCENC =         1.26727950
  Ewald energy   TEWEN  =        94.48331469
  -Hartree energ DENC   =      -836.97142153
  -exchange      EXHF   =         0.00000000
  -V(xc)+E(xc)   XCENC  =        58.48375152
  PAW double counting   =       941.03747580     -944.67581740
  entropy T*S    EENTRO =        -0.05653913
  eigenvalues    EBANDS =      -200.13736670
  atomic energy  EATOM  =       877.00502474
  Solvation  Ediel_sol  =         0.00000000
  ---------------------------------------------------
  free energy    TOTEN  =        -9.56429853 eV

  energy without entropy =       -9.50775940  energy(sigma->0) =       -9.53602896


--------------------------------------------------------------------------------------------------------




--------------------------------------- Iteration      1(   9)  ---------------------------------------


    POTLOK:  cpu time    0.1560: real time    0.0400
    SETDIJ:  cpu time    0.0280: real time    0.0073
     EDDAV:  cpu time    0.2240: real time    0.0560
       DOS:  cpu time    0.0080: real time    0.0019
    CHARGE:  cpu time    0.1920: real time    0.0483
    MIXING:  cpu time    0.0160: real time    0.0036
    --------------------------------------------
      LOOP:  cpu time    0.6240: real time    0.1570

 eigenvalue-minimisations  :    64
 total energy-change (2. order) :-0.1292131E-02  (-0.1471491E-03)
 number of electron      13.0000105 magnetization 
 augmentation part        1.1488805 magnetization 

 Broyden mixing:
  rms(total) = 0.50502E-02    rms(broyden)= 0.50377E-02
  rms(prec ) = 0.13549E-01
  weight for this iteration     100.00

 eigenvalues of (default mixing * dielectric matrix)
  average eigenvalue GAMMA=   1.7690
  2.4609  2.0951  1.2599  1.2599

 Free energy of the ion-electron system (eV)
  ---------------------------------------------------
  alpha Z        PSCENC =         1.26727950
  Ewald energy   TEWEN  =        94.48331469
  -Hartree energ DENC   =      -837.60950606
  -exchange      EXHF   =         0.00000000
  -V(xc)+E(xc)   XCENC  =        58.50632133
  PAW double counting   =       941.57124376     -945.20605393
  entropy T*S    EENTRO =        -0.05652753
  eigenvalues    EBANDS =      -199.52668716
  atomic energy  EATOM  =       877.00502474
  Solvation  Ediel_sol  =         0.00000000
  ---------------------------------------------------
  free energy    TOTEN  =        -9.56559066 eV

  energy without entropy =       -9.50906313  energy(sigma->0) =       -9.53732690


--------------------------------------------------------------------------------------------------------




--------------------------------------- Iteration      1(  10)  ---------------------------------------


    POTLOK:  cpu time    0.1440: real time    0.0370
    SETDIJ:  cpu time    0.0280: real time    0.0073
     EDDAV:  cpu time    0.5240: real time    0.1312
       DOS:  cpu time    0.0080: real time    0.0019
    CHARGE:  cpu time    0.1960: real time    0.0482
    MIXING:  cpu time    0.0160: real time    0.0039
    --------------------------------------------
      LOOP:  cpu time    0.9160: real time    0.2295

 eigenvalue-minimisations  :   128
 total energy-change (2. order) :-0.1796069E-02  (-0.3026804E-04)
 number of electron      13.0000105 magnetization 
 augmentation part        1.1489907 magnetization 

 Broyden mixing:
  rms(total) = 0.27060E-02    rms(broyden)= 0.27038E-02
  rms(prec ) = 0.73858E-02
  weight for this iteration     100.00

 eigenvalues of (default mixing * dielectric matrix)
  average eigenvalue GAMMA=   1.9107
  2.9620  2.4407  1.0115  1.3618  1.7774

 Free energy of the ion-electron system (eV)
  ---------------------------------------------------
  alpha Z        PSCENC =         1.26727950
  Ewald energy   TEWEN  =        94.48331469
  -Hartree energ DENC   =      -837.85699712
  -exchange      EXHF   =         0.00000000
  -V(xc)+E(xc)   XCENC  =        58.50921543
  PAW double counting   =       941.28840710     -944.91789137
  entropy T*S    EENTRO =        -0.05652228
  eigenvalues    EBANDS =      -199.28921741
  atomic energy  EATOM  =       877.00502474
  Solvation  Ediel_sol  =         0.00000000
  ---------------------------------------------------
  free energy    TOTEN  =        -9.56738673 eV

  energy without entropy =       -9.51086445  energy(sigma->0) =       -9.53912559


--------------------------------------------------------------------------------------------------------




--------------------------------------- Iteration      1(  11)  ---------------------------------------


    POTLOK:  cpu time    0.1440: real time    0.0370
    SETDIJ:  cpu time    0.0280: real time    0.0074
     EDDAV:  cpu time    0.2320: real time    0.0578
       DOS:  cpu time    0.0080: real time    0.0019
    CHARGE:  cpu time    0.1960: real time    0.0496
    MIXING:  cpu time    0.0160: real time    0.0039
    --------------------------------------------
      LOOP:  cpu time    0.6240: real time    0.1575

 eigenvalue-minimisations  :    64
 total energy-change (2. order) :-0.2111570E-02  (-0.3618101E-04)
 number of electron      13.0000105 magnetization 
 augmentation part        1.1487838 magnetization 

 Broyden mixing:
  rms(total) = 0.14326E-02    rms(broyden)= 0.14307E-02
  rms(prec ) = 0.32118E-02
  weight for this iteration     100.00

 eigenvalues of (default mixing * dielectric matrix)
  average eigenvalue GAMMA=   1.9701
  3.6704  2.4678  0.9866  1.6183  1.6183  1.4590

 Free energy of the ion-electron system (eV)
  ---------------------------------------------------
  alpha Z        PSCENC =         1.26727950
  Ewald energy   TEWEN  =        94.48331469
  -Hartree energ DENC   =      -838.08290483
  -exchange      EXHF   =         0.00000000
  -V(xc)+E(xc)   XCENC  =        58.51348724
  PAW double counting   =       940.48885679     -944.11837492
  entropy T*S    EENTRO =        -0.05651955
  eigenvalues    EBANDS =      -199.06966194
  atomic energy  EATOM  =       877.00502474
  Solvation  Ediel_sol  =         0.00000000
  ---------------------------------------------------
  free energy    TOTEN  =        -9.56949830 eV

  energy without entropy =       -9.51297875  energy(sigma->0) =       -9.54123852


--------------------------------------------------------------------------------------------------------




--------------------------------------- Iteration      1(  12)  ---------------------------------------


    POTLOK:  cpu time    0.1480: real time    0.0373
    SETDIJ:  cpu time    0.0280: real time    0.0074
     EDDAV:  cpu time    0.2320: real time    0.0579
       DOS:  cpu time    0.0080: real time    0.0019
    CHARGE:  cpu time    0.1920: real time    0.0485
    MIXING:  cpu time    0.0160: real time    0.0041
    --------------------------------------------
      LOOP:  cpu time    0.6240: real time    0.1571

 eigenvalue-minimisations  :    64
 total energy-change (2. order) :-0.9645224E-03  (-0.1093733E-04)
 number of electron      13.0000105 magnetization 
 augmentation part        1.1486489 magnetization 

 Broyden mixing:
  rms(total) = 0.71822E-03    rms(broyden)= 0.71720E-03
  rms(prec ) = 0.15457E-02
  weight for this iteration     100.00

 eigenvalues of (default mixing * dielectric matrix)
  average eigenvalue GAMMA=   2.1443
  4.8612  2.7133  2.3877  1.6844  1.3047  1.0056  1.0533

 Free energy of the ion-electron system (eV)
  ---------------------------------------------------
  alpha Z        PSCENC =         1.26727950
  Ewald energy   TEWEN  =        94.48331469
  -Hartree energ DENC   =      -838.14334428
  -exchange      EXHF   =         0.00000000
  -V(xc)+E(xc)   XCENC  =        58.51391159
  PAW double counting   =       940.28114984     -943.91180238
  entropy T*S    EENTRO =        -0.05652106
  eigenvalues    EBANDS =      -199.00947546
  atomic energy  EATOM  =       877.00502474
  Solvation  Ediel_sol  =         0.00000000
  ---------------------------------------------------
  free energy    TOTEN  =        -9.57046282 eV

  energy without entropy =       -9.51394176  energy(sigma->0) =       -9.54220229


--------------------------------------------------------------------------------------------------------




--------------------------------------- Iteration      1(  13)  ---------------------------------------


    POTLOK:  cpu time    0.1400: real time    0.0372
    SETDIJ:  cpu time    0.0320: real time    0.0073
     EDDAV:  cpu time    0.2080: real time    0.0538
       DOS:  cpu time    0.0160: real time    0.0020
    CHARGE:  cpu time    0.1920: real time    0.0480
    MIXING:  cpu time    0.0160: real time    0.0043
    --------------------------------------------
      LOOP:  cpu time    0.6040: real time    0.1525

 eigenvalue-minimisations  :    64
 total energy-change (2. order) :-0.3486786E-03  (-0.3622094E-05)
 number of electron      13.0000105 magnetization 
 augmentation part        1.1487365 magnetization 

 Broyden mixing:
  rms(total) = 0.31032E-03    rms(broyden)= 0.31008E-03
  rms(prec ) = 0.65798E-03
  weight for this iteration     100.00

 eigenvalues of (default mixing * dielectric matrix)
  average eigenvalue GAMMA=   2.3142
  5.4380  3.1569  2.5778  2.2809  1.7009  1.3052  0.9918  1.0620

 Free energy of the ion-electron system (eV)
  ---------------------------------------------------
  alpha Z        PSCENC =         1.26727950
  Ewald energy   TEWEN  =        94.48331469
  -Hartree energ DENC   =      -838.11178696
  -exchange      EXHF   =         0.00000000
  -V(xc)+E(xc)   XCENC  =        58.51140449
  PAW double counting   =       940.33970039     -943.97012833
  entropy T*S    EENTRO =        -0.05652309
  eigenvalues    EBANDS =      -199.03909692
  atomic energy  EATOM  =       877.00502474
  Solvation  Ediel_sol  =         0.00000000
  ---------------------------------------------------
  free energy    TOTEN  =        -9.57081150 eV

  energy without entropy =       -9.51428841  energy(sigma->0) =       -9.54254996


--------------------------------------------------------------------------------------------------------




--------------------------------------- Iteration      1(  14)  ---------------------------------------


    POTLOK:  cpu time    0.1520: real time    0.0380
    SETDIJ:  cpu time    0.0280: real time    0.0073
     EDDAV:  cpu time    0.5160: real time    0.1291
       DOS:  cpu time    0.0080: real time    0.0019
    CHARGE:  cpu time    0.1920: real time    0.0479
    MIXING:  cpu time    0.0160: real time    0.0046
    --------------------------------------------
      LOOP:  cpu time    0.9160: real time    0.2288

 eigenvalue-minimisations  :   128
 total energy-change (2. order) :-0.1787933E-03  (-0.1679400E-05)
 number of electron      13.0000105 magnetization 
 augmentation part        1.1487207 magnetization 

 Broyden mixing:
  rms(total) = 0.10707E-03    rms(broyden)= 0.10700E-03
  rms(prec ) = 0.17094E-03
  weight for this iteration     100.00

 eigenvalues of (default mixing * dielectric matrix)
  average eigenvalue GAMMA=   2.2511
  6.0065  3.3568  2.5164  2.3467  1.6739  1.3170  0.9465  1.0480  1.0480

 Free energy of the ion-electron system (eV)
  ---------------------------------------------------
  alpha Z        PSCENC =         1.26727950
  Ewald energy   TEWEN  =        94.48331469
  -Hartree energ DENC   =      -838.10164387
  -exchange      EXHF   =         0.00000000
  -V(xc)+E(xc)   XCENC  =        58.51104617
  PAW double counting   =       940.48204273     -944.11234934
  entropy T*S    EENTRO =        -0.05652227
  eigenvalues    EBANDS =      -199.04918263
  atomic energy  EATOM  =       877.00502474
  Solvation  Ediel_sol  =         0.00000000
  ---------------------------------------------------
  free energy    TOTEN  =        -9.57099029 eV

  energy without entropy =       -9.51446802  energy(sigma->0) =       -9.54272916


--------------------------------------------------------------------------------------------------------




--------------------------------------- Iteration      1(  15)  ---------------------------------------


    POTLOK:  cpu time    0.1520: real time    0.0383
    SETDIJ:  cpu time    0.0280: real time    0.0072
     EDDAV:  cpu time    0.2240: real time    0.0556
       DOS:  cpu time    0.0080: real time    0.0019
    --------------------------------------------
      LOOP:  cpu time    0.4080: real time    0.1030

 eigenvalue-minimisations  :    64
 total energy-change (2. order) :-0.9040437E-05  (-0.1652563E-07)
 number of electron      13.0000105 magnetization 
 augmentation part        1.1487207 magnetization 

 Free energy of the ion-electron system (eV)
  ---------------------------------------------------
  alpha Z        PSCENC =         1.26727950
  Ewald energy   TEWEN  =        94.48331469
  -Hartree energ DENC   =      -838.09921289
  -exchange      EXHF   =         0.00000000
  -V(xc)+E(xc)   XCENC  =        58.51092725
  PAW double counting   =       940.45427852     -944.08457017
  entropy T*S    EENTRO =        -0.05652218
  eigenvalues    EBANDS =      -199.05151879
  atomic energy  EATOM  =       877.00502474
  Solvation  Ediel_sol  =         0.00000000
  ---------------------------------------------------
  free energy    TOTEN  =        -9.57099933 eV

  energy without entropy =       -9.51447716  energy(sigma->0) =       -9.54273825


--------------------------------------------------------------------------------------------------------




 average (electrostatic) potential at core
  the test charge radii are     0.5201  0.7215
  (the norm of the test charge is              1.0000)
       1 -49.5904       2 -83.2211       3 -83.2211
 
 
 
 E-fermi :  -7.1250     XC(G=0):  -1.1675     alpha+bet : -0.3547


 k-point     1 :       0.0000    0.0000    0.0000
  band No.  band energies     occupation 
      1     -30.8673      2.00000
      2     -21.5863      2.00000
      3     -13.8292      2.00000
      4     -11.4468      2.00000
      5     -10.8576      2.00000
      6      -7.3761      1.99962
      7      -7.1251      1.00038
      8      -3.6005      0.00000
      9      -0.4170      0.00000
     10       1.7311      0.00000
     11       1.8960      0.00000
     12       1.9850      0.00000
     13       2.0411      0.00000
     14       2.0733      0.00000
     15       2.2721      0.00000
     16       3.8810      0.00000
     17       4.1253      0.00000
     18       4.1403      0.00000
     19       4.1928      0.00000
     20       4.3492      0.00000
     21       4.4432      0.00000
     22       4.4953      0.00000
     23       4.5125      0.00000
     24       4.5145      0.00000
     25       4.5511      0.00000
     26       4.6608      0.00000
     27       5.0619      0.00000
     28       6.4388      0.00000
     29       6.5445      0.00000
     30       6.7168      0.00000
     31       6.7312      0.00000
     32       6.7671      0.00000


--------------------------------------------------------------------------------------------------------


 soft charge-density along one line, spin component           1
         0         1         2         3         4         5         6         7         8         9
 total charge-density along one line
 
 pseudopotential strength for first ion, spin component:           1
 -2.445  -4.234  -0.000   0.000  -0.003
 -4.234  -7.245  -0.000   0.000  -0.011
 -0.000  -0.000  -0.286  -0.000   0.000
  0.000   0.000  -0.000  -0.300  -0.000
 -0.003  -0.011   0.000  -0.000  -0.292
 total augmentation occupancy for first ion, spin component:           1
  5.670  -1.492   0.000   0.000   0.810
 -1.492   0.482   0.000   0.000  -0.211
  0.000   0.000   0.339   0.000   0.000
  0.000   0.000   0.000   0.078   0.000
  0.810  -0.211   0.000   0.000   0.171


------------------------ aborting loop because EDIFF is reached ----------------------------------------


    CHARGE:  cpu time    0.2040: real time    0.0512
    FORLOC:  cpu time    0.0000: real time    0.0007
    FORNL :  cpu time    0.0160: real time    0.0041
    STRESS:  cpu time    0.2360: real time    0.0589
    FORCOR:  cpu time    0.1000: real time    0.0257
    FORHAR:  cpu time    0.0320: real time    0.0079
    MIXING:  cpu time    0.0200: real time    0.0047
    OFIELD:  cpu time    0.0000: real time    0.0003

  FORCE on cell =-STRESS in cart. coord.  units (eV):
  Direction    XX          YY          ZZ          XY          YZ          ZX
  --------------------------------------------------------------------------------------
  Alpha Z     1.26728     1.26728     1.26728
  Ewald     -79.67270   321.72281  -147.56691     0.00000    -0.00000    -0.00000
  Hartree   214.30177   434.47692   189.31925    -0.00000    -0.00000    -0.00000
  E(xc)     -62.17843   -61.35436   -62.60968    -0.00000     0.00000    -0.00000
  Local    -326.08673  -890.84729  -230.57135     0.00000     0.00000     0.00000
  n-local   -54.28380   -45.92706   -46.71578     0.00000     0.00000    -0.00000
  augment    14.80286     8.62988    12.49840    -0.00000    -0.00000     0.00000
  Kinetic   297.00900   238.16375   282.78432     0.00000     0.00000    -0.00000
  Fock        0.00000     0.00000     0.00000     0.00000     0.00000     0.00000
  -------------------------------------------------------------------------------------
  Total       5.15925     6.13192    -1.59445     0.00000     0.00000     0.00000
  in kB      16.52773    19.64370    -5.10785     0.00000     0.00000     0.00000
  external pressure =       10.35 kB  Pullay stress =        0.00 kB


 VOLUME and BASIS-vectors are now :
 -----------------------------------------------------------------------------
  energy-cutoff  :      400.00
  volume of cell :      500.13
      direct lattice vectors                 reciprocal lattice vectors
     7.937700000  0.000000000  0.000000000     0.125981078  0.000000000  0.000000000
     0.000000000  7.937700000  0.000000000     0.000000000  0.125981078  0.000000000
     0.000000000  0.000000000  7.937700000     0.000000000  0.000000000  0.125981078

  length of vectors
     7.937700000  7.937700000  7.937700000     0.125981078  0.125981078  0.125981078


 FORCES acting on ions
    electron-ion (+dipol)            ewald-force                    non-local-force                 convergence-correction
 -----------------------------------------------------------------------------------------------
   0.948E+02 0.375E-14 -.200E-14   -.115E+03 0.142E-13 -.229E-16   0.802E+01 0.624E-30 -.629E-28   0.104E-03 -.813E-15 -.601E-14
   -.379E+02 0.249E+03 -.512E-05   0.574E+02 -.294E+03 0.174E-16   -.135E+02 0.401E+02 0.288E-26   0.213E-03 -.625E-03 -.415E-13
   -.379E+02 -.249E+03 -.264E-04   0.574E+02 0.294E+03 0.952E-16   -.135E+02 -.401E+02 -.116E-25   0.213E-03 0.625E-03 -.296E-13
 -----------------------------------------------------------------------------------------------
   0.189E+02 -.294E-12 -.315E-04   -.711E-14 0.000E+00 0.897E-16   -.189E+02 0.000E+00 -.882E-26   0.530E-03 0.209E-13 -.770E-13
 
 
 POSITION                                       TOTAL-FORCE (eV/Angst)
 -----------------------------------------------------------------------------------
      0.00000      0.00000      0.00000       -11.946477     -0.000000      0.000000
      0.58210      7.18097      0.00000         5.973238     -4.869035     -0.000000
      0.58210      0.75673      0.00000         5.973238      4.869035      0.000000
 -----------------------------------------------------------------------------------
    total drift:                                0.013201     -0.000000     -0.000031


--------------------------------------------------------------------------------------------------------



  FREE ENERGIE OF THE ION-ELECTRON SYSTEM (eV)
  ---------------------------------------------------
  free  energy   TOTEN  =        -9.57099933 eV

  energy  without entropy=       -9.51447716  energy(sigma->0) =       -9.54273825
 


--------------------------------------------------------------------------------------------------------


    POTLOK:  cpu time    0.1840: real time    0.0458


--------------------------------------------------------------------------------------------------------


 Quasi-Newton relaxation of ions (Broydens 2nd method)
  g(Force)  = 0.573E+01   g(Stress)= 0.000E+00

 Reset! Starting new Quasi-Newton update for ions 


--------------------------------------------------------------------------------------------------------


    WAVPRE:  cpu time   38.9280: real time    9.8070
    FEWALD:  cpu time    0.0000: real time    0.0008
    ORTHCH:  cpu time    0.0200: real time    0.0053
     LOOP+:  cpu time   49.3720: real time   12.4352


--------------------------------------- Iteration      2(   1)  ---------------------------------------


    POTLOK:  cpu time    0.1680: real time    0.0445
    SETDIJ:  cpu time    0.0280: real time    0.0073
     EDDAV:  cpu time    0.2320: real time    0.0578
       DOS:  cpu time    0.0080: real time    0.0020
    CHARGE:  cpu time    0.2040: real time    0.0506
    MIXING:  cpu time    0.0120: real time    0.0028
    --------------------------------------------
      LOOP:  cpu time    0.6520: real time    0.1655

 eigenvalue-minimisations  :    64
 total energy-change (2. order) : 0.1613944E+01  (-0.1321889E+03)
 number of electron      13.0000089 magnetization 
 augmentation part        0.9954787 magnetization 

 Broyden mixing:
  rms(total) = 0.92896E+00    rms(broyden)= 0.90982E+00
  rms(prec ) = 0.10872E+01
  weight for this iteration     100.00

 Free energy of the ion-electron system (eV)
  ---------------------------------------------------
  alpha Z        PSCENC =         1.26727950
  Ewald energy   TEWEN  =       -31.98620108
  -Hartree energ DENC   =      -739.89383555
  -exchange      EXHF   =         0.00000000
  -V(xc)+E(xc)   XCENC  =        56.95825399
  PAW double counting   =       940.43094716     -944.06122360
  entropy T*S    EENTRO =        -0.08096067
  eigenvalues    EBANDS =      -167.59633028
  atomic energy  EATOM  =       877.00502474
  Solvation  Ediel_sol  =         0.00000000
  ---------------------------------------------------
  free energy    TOTEN  =        -7.95704580 eV

  energy without entropy =       -7.87608513  energy(sigma->0) =       -7.91656546


--------------------------------------------------------------------------------------------------------




--------------------------------------- Iteration      2(   2)  ---------------------------------------


    POTLOK:  cpu time    0.1520: real time    0.0394
    SETDIJ:  cpu time    0.0280: real time    0.0072
     EDDAV:  cpu time    0.2320: real time    0.0574
       DOS:  cpu time    0.0080: real time    0.0019
    CHARGE:  cpu time    0.1920: real time    0.0481
    MIXING:  cpu time    0.0120: real time    0.0027
    --------------------------------------------
      LOOP:  cpu time    0.6240: real time    0.1568

 eigenvalue-minimisations  :    64
 total energy-change (2. order) :-0.1304209E+01  (-0.2114760E+01)
 number of electron      13.0000087 magnetization 
 augmentation part        1.0698845 magnetization 

 Broyden mixing:
  rms(total) = 0.47039E+00    rms(broyden)= 0.46649E+00
  rms(prec ) = 0.53256E+00
  weight for this iteration     100.00

 eigenvalues of (default mixing * dielectric matrix)
  average eigenvalue GAMMA=   1.0583
  1.0583

 Free energy of the ion-electron system (eV)
  ---------------------------------------------------
  alpha Z        PSCENC =         1.26727950
  Ewald energy   TEWEN  =       -31.98620108
  -Hartree energ DENC   =      -724.02959782
  -exchange      EXHF   =         0.00000000
  -V(xc)+E(xc)   XCENC  =        55.94857016
  PAW double counting   =       890.77896160     -894.36009130
  entropy T*S    EENTRO =        -0.05655043
  eigenvalues    EBANDS =      -183.82865020
  atomic energy  EATOM  =       877.00502474
  Solvation  Ediel_sol  =         0.00000000
  ---------------------------------------------------
  free energy    TOTEN  =        -9.26125485 eV

  energy without entropy =       -9.20470441  energy(sigma->0) =       -9.23297963


--------------------------------------------------------------------------------------------------------




--------------------------------------- Iteration      2(   3)  ---------------------------------------


    POTLOK:  cpu time    0.1480: real time    0.0388
    SETDIJ:  cpu time    0.0320: real time    0.0073
     EDDAV:  cpu time    0.5200: real time    0.1305
       DOS:  cpu time    0.0080: real time    0.0019
    CHARGE:  cpu time    0.1920: real time    0.0479
    MIXING:  cpu time    0.0120: real time    0.0030
    --------------------------------------------
      LOOP:  cpu time    0.9120: real time    0.2294

 eigenvalue-minimisations  :   128
 total energy-change (2. order) :-0.2007088E-01  (-0.2748918E-01)
 number of electron      13.0000087 magnetization 
 augmentation part        1.0545639 magnetization 

 Broyden mixing:
  rms(total) = 0.25595E+00    rms(broyden)= 0.25576E+00
  rms(prec ) = 0.28659E+00
  weight for this iteration     100.00

 eigenvalues of (default mixing * dielectric matrix)
  average eigenvalue GAMMA=   1.5966
  0.9671  2.2261

 Free energy of the ion-electron system (eV)
  ---------------------------------------------------
  alpha Z        PSCENC =         1.26727950
  Ewald energy   TEWEN  =       -31.98620108
  -Hartree energ DENC   =      -726.04486969
  -exchange      EXHF   =         0.00000000
  -V(xc)+E(xc)   XCENC  =        56.05420860
  PAW double counting   =       848.59852867     -852.17734597
  entropy T*S    EENTRO =        -0.05800920
  eigenvalues    EBANDS =      -181.93994130
  atomic energy  EATOM  =       877.00502474
  Solvation  Ediel_sol  =         0.00000000
  ---------------------------------------------------
  free energy    TOTEN  =        -9.28132573 eV

  energy without entropy =       -9.22331653  energy(sigma->0) =       -9.25232113


--------------------------------------------------------------------------------------------------------




--------------------------------------- Iteration      2(   4)  ---------------------------------------


    POTLOK:  cpu time    0.1440: real time    0.0372
    SETDIJ:  cpu time    0.0280: real time    0.0073
     EDDAV:  cpu time    0.2240: real time    0.0560
       DOS:  cpu time    0.0080: real time    0.0019
    CHARGE:  cpu time    0.1920: real time    0.0481
    MIXING:  cpu time    0.0160: real time    0.0033
    --------------------------------------------
      LOOP:  cpu time    0.6120: real time    0.1537

 eigenvalue-minimisations  :    64
 total energy-change (2. order) :-0.8720689E-01  (-0.1116649E-01)
 number of electron      13.0000089 magnetization 
 augmentation part        1.0420863 magnetization 

 Broyden mixing:
  rms(total) = 0.55500E-01    rms(broyden)= 0.54413E-01
  rms(prec ) = 0.68059E-01
  weight for this iteration     100.00

 eigenvalues of (default mixing * dielectric matrix)
  average eigenvalue GAMMA=   1.4358
  2.2871  1.0102  1.0102

 Free energy of the ion-electron system (eV)
  ---------------------------------------------------
  alpha Z        PSCENC =         1.26727950
  Ewald energy   TEWEN  =       -31.98620108
  -Hartree energ DENC   =      -727.01325032
  -exchange      EXHF   =         0.00000000
  -V(xc)+E(xc)   XCENC  =        56.07207263
  PAW double counting   =       789.38459844     -792.89813156
  entropy T*S    EENTRO =        -0.06715306
  eigenvalues    EBANDS =      -181.13277191
  atomic energy  EATOM  =       877.00502474
  Solvation  Ediel_sol  =         0.00000000
  ---------------------------------------------------
  free energy    TOTEN  =        -9.36853263 eV

  energy without entropy =       -9.30137956  energy(sigma->0) =       -9.33495609


--------------------------------------------------------------------------------------------------------




--------------------------------------- Iteration      2(   5)  ---------------------------------------


    POTLOK:  cpu time    0.1360: real time    0.0361
    SETDIJ:  cpu time    0.0320: real time    0.0072
     EDDAV:  cpu time    0.2080: real time    0.0534
       DOS:  cpu time    0.0120: real time    0.0016
    CHARGE:  cpu time    0.1800: real time    0.0475
    MIXING:  cpu time    0.0160: real time    0.0033
    --------------------------------------------
      LOOP:  cpu time    0.5840: real time    0.1492

 eigenvalue-minimisations  :    64
 total energy-change (2. order) :-0.3505235E-03  (-0.1229235E-02)
 number of electron      13.0000088 magnetization 
 augmentation part        1.0469139 magnetization 

 Broyden mixing:
  rms(total) = 0.16947E-01    rms(broyden)= 0.16508E-01
  rms(prec ) = 0.20713E-01
  weight for this iteration     100.00

 eigenvalues of (default mixing * dielectric matrix)
  average eigenvalue GAMMA=   1.4302
  2.5296  1.3891  1.0108  0.7914

 Free energy of the ion-electron system (eV)
  ---------------------------------------------------
  alpha Z        PSCENC =         1.26727950
  Ewald energy   TEWEN  =       -31.98620108
  -Hartree energ DENC   =      -726.08428835
  -exchange      EXHF   =         0.00000000
  -V(xc)+E(xc)   XCENC  =        56.00778625
  PAW double counting   =       781.83538042     -785.31595842
  entropy T*S    EENTRO =        -0.06208267
  eigenvalues    EBANDS =      -182.03582354
  atomic energy  EATOM  =       877.00502474
  Solvation  Ediel_sol  =         0.00000000
  ---------------------------------------------------
  free energy    TOTEN  =        -9.36888315 eV

  energy without entropy =       -9.30680048  energy(sigma->0) =       -9.33784181


--------------------------------------------------------------------------------------------------------




--------------------------------------- Iteration      2(   6)  ---------------------------------------


    POTLOK:  cpu time    0.1400: real time    0.0367
    SETDIJ:  cpu time    0.0400: real time    0.0072
     EDDAV:  cpu time    0.2240: real time    0.0562
       DOS:  cpu time    0.0080: real time    0.0019
    CHARGE:  cpu time    0.1960: real time    0.0483
    MIXING:  cpu time    0.0120: real time    0.0038
    --------------------------------------------
      LOOP:  cpu time    0.6240: real time    0.1542

 eigenvalue-minimisations  :    64
 total energy-change (2. order) :-0.1565901E-02  (-0.1881079E-03)
 number of electron      13.0000088 magnetization 
 augmentation part        1.0487534 magnetization 

 Broyden mixing:
  rms(total) = 0.70895E-02    rms(broyden)= 0.70111E-02
  rms(prec ) = 0.97724E-02
  weight for this iteration     100.00

 eigenvalues of (default mixing * dielectric matrix)
  average eigenvalue GAMMA=   1.4581
  2.5073  1.7537  1.1045  1.1045  0.8207

 Free energy of the ion-electron system (eV)
  ---------------------------------------------------
  alpha Z        PSCENC =         1.26727950
  Ewald energy   TEWEN  =       -31.98620108
  -Hartree energ DENC   =      -725.72742037
  -exchange      EXHF   =         0.00000000
  -V(xc)+E(xc)   XCENC  =        55.98447295
  PAW double counting   =       776.90613818     -780.37176105
  entropy T*S    EENTRO =        -0.06205764
  eigenvalues    EBANDS =      -182.38592427
  atomic energy  EATOM  =       877.00502474
  Solvation  Ediel_sol  =         0.00000000
  ---------------------------------------------------
  free energy    TOTEN  =        -9.37044905 eV

  energy without entropy =       -9.30839141  energy(sigma->0) =       -9.33942023


--------------------------------------------------------------------------------------------------------




--------------------------------------- Iteration      2(   7)  ---------------------------------------


    POTLOK:  cpu time    0.1520: real time    0.0393
    SETDIJ:  cpu time    0.0320: real time    0.0072
     EDDAV:  cpu time    0.5200: real time    0.1300
       DOS:  cpu time    0.0040: real time    0.0019
    CHARGE:  cpu time    0.1920: real time    0.0478
    MIXING:  cpu time    0.0160: real time    0.0038
    --------------------------------------------
      LOOP:  cpu time    0.9120: real time    0.2302

 eigenvalue-minimisations  :   128
 total energy-change (2. order) :-0.3659021E-03  (-0.3203989E-04)
 number of electron      13.0000088 magnetization 
 augmentation part        1.0479503 magnetization 

 Broyden mixing:
  rms(total) = 0.14920E-02    rms(broyden)= 0.14443E-02
  rms(prec ) = 0.38900E-02
  weight for this iteration     100.00

 eigenvalues of (default mixing * dielectric matrix)
  average eigenvalue GAMMA=   1.4609
  2.5727  2.0432  1.2595  1.0305  1.0305  0.8289

 Free energy of the ion-electron system (eV)
  ---------------------------------------------------
  alpha Z        PSCENC =         1.26727950
  Ewald energy   TEWEN  =       -31.98620108
  -Hartree energ DENC   =      -725.81247575
  -exchange      EXHF   =         0.00000000
  -V(xc)+E(xc)   XCENC  =        55.99225028
  PAW double counting   =       777.15250783     -780.62168836
  entropy T*S    EENTRO =        -0.06255994
  eigenvalues    EBANDS =      -182.30495217
  atomic energy  EATOM  =       877.00502474
  Solvation  Ediel_sol  =         0.00000000
  ---------------------------------------------------
  free energy    TOTEN  =        -9.37081495 eV

  energy without entropy =       -9.30825501  energy(sigma->0) =       -9.33953498


--------------------------------------------------------------------------------------------------------




--------------------------------------- Iteration      2(   8)  ---------------------------------------


    POTLOK:  cpu time    0.1520: real time    0.0397
    SETDIJ:  cpu time    0.0320: real time    0.0072
     EDDAV:  cpu time    0.2240: real time    0.0560
       DOS:  cpu time    0.0080: real time    0.0020
    CHARGE:  cpu time    0.1920: real time    0.0482
    MIXING:  cpu time    0.0160: real time    0.0041
    --------------------------------------------
      LOOP:  cpu time    0.6240: real time    0.1572

 eigenvalue-minimisations  :    64
 total energy-change (2. order) :-0.2672839E-03  (-0.2955623E-05)
 number of electron      13.0000088 magnetization 
 augmentation part        1.0479407 magnetization 

 Broyden mixing:
  rms(total) = 0.11279E-02    rms(broyden)= 0.11169E-02
  rms(prec ) = 0.26394E-02
  weight for this iteration     100.00

 eigenvalues of (default mixing * dielectric matrix)
  average eigenvalue GAMMA=   1.5453
  2.7115  2.5166  1.5979  1.0977  1.0977  0.9866  0.8093

 Free energy of the ion-electron system (eV)
  ---------------------------------------------------
  alpha Z        PSCENC =         1.26727950
  Ewald energy   TEWEN  =       -31.98620108
  -Hartree energ DENC   =      -725.74545087
  -exchange      EXHF   =         0.00000000
  -V(xc)+E(xc)   XCENC  =        55.99036731
  PAW double counting   =       777.04733900     -780.51653455
  entropy T*S    EENTRO =        -0.06263883
  eigenvalues    EBANDS =      -182.37026744
  atomic energy  EATOM  =       877.00502474
  Solvation  Ediel_sol  =         0.00000000
  ---------------------------------------------------
  free energy    TOTEN  =        -9.37108224 eV

  energy without entropy =       -9.30844340  energy(sigma->0) =       -9.33976282


--------------------------------------------------------------------------------------------------------




--------------------------------------- Iteration      2(   9)  ---------------------------------------


    POTLOK:  cpu time    0.1520: real time    0.0400
    SETDIJ:  cpu time    0.0320: real time    0.0072
     EDDAV:  cpu time    0.2200: real time    0.0560
       DOS:  cpu time    0.0080: real time    0.0019
    CHARGE:  cpu time    0.1960: real time    0.0484
    MIXING:  cpu time    0.0160: real time    0.0044
    --------------------------------------------
      LOOP:  cpu time    0.6280: real time    0.1579

 eigenvalue-minimisations  :    64
 total energy-change (2. order) :-0.2140441E-03  (-0.4514210E-05)
 number of electron      13.0000088 magnetization 
 augmentation part        1.0480572 magnetization 

 Broyden mixing:
  rms(total) = 0.52262E-03    rms(broyden)= 0.51944E-03
  rms(prec ) = 0.11914E-02
  weight for this iteration     100.00

 eigenvalues of (default mixing * dielectric matrix)
  average eigenvalue GAMMA=   1.7390
  3.5450  2.5559  2.3239  0.8116  0.9759  1.0940  1.0940  1.5120

 Free energy of the ion-electron system (eV)
  ---------------------------------------------------
  alpha Z        PSCENC =         1.26727950
  Ewald energy   TEWEN  =       -31.98620108
  -Hartree energ DENC   =      -725.64810403
  -exchange      EXHF   =         0.00000000
  -V(xc)+E(xc)   XCENC  =        55.98676819
  PAW double counting   =       777.20792893     -780.67707990
  entropy T*S    EENTRO =        -0.06255779
  eigenvalues    EBANDS =      -182.46435485
  atomic energy  EATOM  =       877.00502474
  Solvation  Ediel_sol  =         0.00000000
  ---------------------------------------------------
  free energy    TOTEN  =        -9.37129628 eV

  energy without entropy =       -9.30873849  energy(sigma->0) =       -9.34001739


--------------------------------------------------------------------------------------------------------




--------------------------------------- Iteration      2(  10)  ---------------------------------------


    POTLOK:  cpu time    0.1520: real time    0.0393
    SETDIJ:  cpu time    0.0280: real time    0.0073
     EDDAV:  cpu time    0.2280: real time    0.0563
       DOS:  cpu time    0.0080: real time    0.0019
    CHARGE:  cpu time    0.1920: real time    0.0483
    MIXING:  cpu time    0.0200: real time    0.0046
    --------------------------------------------
      LOOP:  cpu time    0.6240: real time    0.1577

 eigenvalue-minimisations  :    64
 total energy-change (2. order) :-0.1074486E-03  (-0.2527801E-05)
 number of electron      13.0000088 magnetization 
 augmentation part        1.0480802 magnetization 

 Broyden mixing:
  rms(total) = 0.23508E-03    rms(broyden)= 0.23204E-03
  rms(prec ) = 0.39900E-03
  weight for this iteration     100.00

 eigenvalues of (default mixing * dielectric matrix)
  average eigenvalue GAMMA=   1.8287
  4.8465  2.6052  2.3072  1.5935  0.8124  1.0873  1.0873  1.0387  1.0800

 Free energy of the ion-electron system (eV)
  ---------------------------------------------------
  alpha Z        PSCENC =         1.26727950
  Ewald energy   TEWEN  =       -31.98620108
  -Hartree energ DENC   =      -725.61128296
  -exchange      EXHF   =         0.00000000
  -V(xc)+E(xc)   XCENC  =        55.98565512
  PAW double counting   =       777.25512746     -780.72416214
  entropy T*S    EENTRO =        -0.06252806
  eigenvalues    EBANDS =      -182.50031629
  atomic energy  EATOM  =       877.00502474
  Solvation  Ediel_sol  =         0.00000000
  ---------------------------------------------------
  free energy    TOTEN  =        -9.37140373 eV

  energy without entropy =       -9.30887567  energy(sigma->0) =       -9.34013970


--------------------------------------------------------------------------------------------------------




--------------------------------------- Iteration      2(  11)  ---------------------------------------


    POTLOK:  cpu time    0.1520: real time    0.0397
    SETDIJ:  cpu time    0.0280: real time    0.0073
     EDDAV:  cpu time    0.3560: real time    0.0888
       DOS:  cpu time    0.0080: real time    0.0020
    --------------------------------------------
      LOOP:  cpu time    0.5440: real time    0.1376

 eigenvalue-minimisations  :    96
 total energy-change (2. order) :-0.1022261E-04  (-0.7690962E-07)
 number of electron      13.0000088 magnetization 
 augmentation part        1.0480802 magnetization 

 Free energy of the ion-electron system (eV)
  ---------------------------------------------------
  alpha Z        PSCENC =         1.26727950
  Ewald energy   TEWEN  =       -31.98620108
  -Hartree energ DENC   =      -725.61549919
  -exchange      EXHF   =         0.00000000
  -V(xc)+E(xc)   XCENC  =        55.98602089
  PAW double counting   =       777.25790552     -780.72706075
  entropy T*S    EENTRO =        -0.06255325
  eigenvalues    EBANDS =      -182.49633032
  atomic energy  EATOM  =       877.00502474
  Solvation  Ediel_sol  =         0.00000000
  ---------------------------------------------------
  free energy    TOTEN  =        -9.37141395 eV

  energy without entropy =       -9.30886070  energy(sigma->0) =       -9.34013733


--------------------------------------------------------------------------------------------------------




 average (electrostatic) potential at core
  the test charge radii are     0.5201  0.7215
  (the norm of the test charge is              1.0000)
       1 -43.8871       2 -83.0197       3 -83.0197
 
 
 
 E-fermi :  -7.8901     XC(G=0):  -1.3133     alpha+bet : -0.3547


 k-point     1 :       0.0000    0.0000    0.0000
  band No.  band energies     occupation 
      1     -25.3178      2.00000
      2     -22.8491      2.00000
      3     -12.2178      2.00000
      4      -9.7190      2.00000
      5      -9.1617      2.00000
      6      -8.0387      1.96447
      7      -7.8932      1.03553
      8      -6.9071      0.00000
      9      -1.0334      0.00000
     10       0.6442      0.00000
     11       1.8222      0.00000
     12       1.8952      0.00000
     13       1.9220      0.00000
     14       1.9632      0.00000
     15       2.0455      0.00000
     16       3.0243      0.00000
     17       3.6925      0.00000
     18       4.0229      0.00000
     19       4.0690      0.00000
     20       4.1980      0.00000
     21       4.3420      0.00000
     22       4.3557      0.00000
     23       4.4136      0.00000
     24       4.4402      0.00000
     25       4.4916      0.00000
     26       4.6785      0.00000
     27       4.7211      0.00000
     28       5.7793      0.00000
     29       6.2723      0.00000
     30       6.4286      0.00000
     31       6.7009      0.00000
     32       6.7034      0.00000


--------------------------------------------------------------------------------------------------------


 soft charge-density along one line, spin component           1
         0         1         2         3         4         5         6         7         8         9
 total charge-density along one line
 
 pseudopotential strength for first ion, spin component:           1
 -2.385  -4.117   0.000   0.000  -0.001
 -4.117  -7.020   0.000   0.000  -0.003
  0.000   0.000  -0.333  -0.000   0.000
  0.000   0.000  -0.000  -0.334  -0.000
 -0.001  -0.003   0.000  -0.000  -0.333
 total augmentation occupancy for first ion, spin component:           1
  2.618  -0.596   0.000   0.000   0.214
 -0.596   0.158   0.000   0.000  -0.053
  0.000   0.000   0.054   0.000   0.000
  0.000   0.000   0.000   0.010   0.000
  0.214  -0.053   0.000   0.000   0.025


------------------------ aborting loop because EDIFF is reached ----------------------------------------


    CHARGE:  cpu time    0.1960: real time    0.0488
    FORLOC:  cpu time    0.0040: real time    0.0008
    FORNL :  cpu time    0.0160: real time    0.0041
    STRESS:  cpu time    0.2320: real time    0.0581
    FORCOR:  cpu time    0.0920: real time    0.0229
    FORHAR:  cpu time    0.0320: real time    0.0078
    MIXING:  cpu time    0.0200: real time    0.0047
    OFIELD:  cpu time    0.0000: real time    0.0003

  FORCE on cell =-STRESS in cart. coord.  units (eV):
  Direction    XX          YY          ZZ          XY          YZ          ZX
  --------------------------------------------------------------------------------------
  Alpha Z     1.26728     1.26728     1.26728
  Ewald     -90.81063   207.95696  -149.13262    -0.00000    -0.00000    -0.00000
  Hartree   180.98092   389.62638   155.00965    -0.00000    -0.00000    -0.00000
  E(xc)     -59.56132   -59.34460   -60.02361     0.00000     0.00000     0.00000
  Local    -280.16351  -748.16135  -189.33667    -0.00000     0.00000     0.00000
  n-local   -49.60029   -38.11226   -45.12174     0.00000     0.00000     0.00000
  augment    13.73021     8.28845    12.13152     0.00000     0.00000     0.00000
  Kinetic   280.65715   227.29533   273.58417     0.00000    -0.00000    -0.00000
  Fock        0.00000     0.00000     0.00000     0.00000     0.00000     0.00000
  -------------------------------------------------------------------------------------
  Total      -3.50019   -11.18381    -1.62200     0.00000     0.00000     0.00000
  in kB     -11.21291   -35.82747    -5.19610     0.00000     0.00000     0.00000
  external pressure =      -17.41 kB  Pullay stress =        0.00 kB


 VOLUME and BASIS-vectors are now :
 -----------------------------------------------------------------------------
  energy-cutoff  :      400.00
  volume of cell :      500.13
      direct lattice vectors                 reciprocal lattice vectors
     7.937700000  0.000000000  0.000000000     0.125981078  0.000000000  0.000000000
     0.000000000  7.937700000  0.000000000     0.000000000  0.125981078  0.000000000
     0.000000000  0.000000000  7.937700000     0.000000000  0.000000000  0.125981078

  length of vectors
     7.937700000  7.937700000  7.937700000     0.125981078  0.125981078  0.125981078


 FORCES acting on ions
    electron-ion (+dipol)            ewald-force                    non-local-force                 convergence-correction
 -----------------------------------------------------------------------------------------------
   0.639E+02 0.275E-14 0.220E-15   -.643E+02 0.711E-14 -.105E-16   0.238E+01 -.169E-28 -.972E-30   0.959E-05 -.756E-16 -.589E-14
[...]
   28      set_dd_paw                            0.887664                            133   2
   29        set_rsgf_all                          0.000906                          133   3
   30      eddav                                 8.842810                            127   2
   31        phase                                 0.000858                          127   3
   32        redis_proj                            0.476986                         1720   3
   33        redis_pw                              0.968223                         1417   3
   34        w1_copy                               0.051023                         1290   3
   35        fftwav_mpi                            0.491534                          430   3
   36          fftwav                                0.482830                        430   4
   37            fft3d                                 0.399607                      430   5
   38        eccp                                  0.023936                          127   3
   39        truncate_high_frequency_w1            0.003334                          557   3
   40        setup_precond                         0.007496                          127   3
   41        hamiltmu                              1.030476                          430   3
   42          vhamil                                0.095333                        430   4
   43          overl1                                0.013962                        430   4
   44          vnlac0                                0.283248                        430   4
   45            gemm                                  0.164223                     1290   5
   46            work_mul_crexp                        0.069486                     1290   5
   47          kinhamil                              0.574438                        430   4
   48            fftext_mpi                            0.546384                      430   5
   49              fft3d_mpi                             0.390331                    430   6
   50                fft3d                                 0.380019                  430   7
   51        overl                                 0.018173                          733   3
   52        orth1                                 0.452878                         1163   3
   53        apply_precond                         0.015560                          303   3
   54        w1_projall                            0.105063                          303   3
   55          proj1                                 0.097745                        303   4
   56      set_charge                            5.434296                            113   2
   57        soft_charge                           0.910957                          113   3
   58          fftwav_mpi                            0.118250                        113   4
   59            fftwav                                0.115901                      113   5
   60              fft3d                                 0.095649                    113   6
   61          pw_charge                             0.014773                        113   4
   62          fft3d_mpi                             0.361075                        113   4
   63            fftbas_plan_mpi                       0.227675                      113   5
   64              dfftw_execute                         0.038023                    339   6
   65              map_backward                          0.162603                    226   6
   66                map_gather                            0.015391                  226   7
   67                m_alltoallv_z                         0.131026                  226   7
   68                map_scatter                           0.005263                  226   7
   69        depsum                                0.052566                          113   3
   70        fft3d_mpi                             0.194724                          113   3
   71          fftbas_plan_mpi                       0.183499                        113   4
   72            dfftw_execute                         0.024483                      339   5
   73            map_backward                          0.126543                      226   5
   74              map_gather                            0.004163                    113   6
   75              m_alltoallv_z                         0.107762                    113   6
   76              map_scatter                           0.007940                    113   6
   77      brmix                                 0.407700                            113   2
   78        brpre                                 0.009553                          113   3
   79        setg0                                 0.104927                          123   3
   80        broyd                                 0.209877                          113   3
   81          brsav                                 0.010158                       1228   4
   82          brget                                 0.032835                       4192   4
   83      force_and_stress                      1.676430                             10   2
   84        set_charge                            0.491848                           10   3
   85          soft_charge                           0.091406                         10   4
   86            fftwav_mpi                            0.011249                       10   5
   87              fftwav                                0.011014                     10   6
   88                fft3d                                 0.009035                   10   7
   89            pw_charge                             0.001369                       10   5
   90            fft3d_mpi                             0.036916                       10   5
   91              fftbas_plan_mpi                       0.024945                     10   6
   92                dfftw_execute                         0.003348                   30   7
   93                map_backward                          0.019217                   20   7
   94                  map_gather                            0.001384                 20   8
   95                  m_alltoallv_z                         0.016364                 20   8
   96                  map_scatter                           0.000478                 20   8
   97          depsum                                0.004495                         10   4
   98          fft3d_mpi                             0.016885                         10   4
   99            fftbas_plan_mpi                       0.015886                       10   5
  100              dfftw_execute                         0.002169                     30   6
  101              map_backward                          0.010861                     20   6
  102                map_gather                            0.000376                   10   7
  103                m_alltoallv_z                         0.009154                   10   7
  104                map_scatter                           0.000727                   10   7
  105        forloc                                0.007190                           10   3
  106        fornl                                 0.022749                           10   3
  107          phase                                 0.000056                         10   4
  108        fordep                                0.014827                           10   3
  109          setdij_                               0.013309                         60   4
  110        setdij_                               0.039520                          200   3
  111        set_dd_paw                            0.066068                           10   3
  112          set_rsgf_all                          0.000069                         10   4
  113        strkin                                0.001903                           10   3
  114        strelo                                0.012556                           10   3
  115        strenl                                0.523598                           10   3
  116          spher                                 0.479844                        190   4
  117          phase                                 0.000542                         90   4
  118          proj1                                 0.028479                         90   4
  119        fft3d_mpi                             0.190601                          110   3
  120          fftbas_plan_mpi                       0.179645                        110   4
  121            dfftw_execute                         0.024526                      330   5
  122            map_forward                           0.058464                      100   5
  123              map_gather                            0.001873                     50   6
  124              m_alltoallv_z                         0.050910                     50   6
  125              map_scatter                           0.002772                     50   6
  126            map_backward                          0.063826                      120   5
  127              map_gather                            0.002175                     60   6
  128              m_alltoallv_z                         0.054286                     60   6
  129              map_scatter                           0.003912                     60   6
  130        ggaall_grid                           0.006157                           10   3
  131        forhar                                0.012296                           20   3
  132        strehar                               0.009142                           10   3
  133        chggra                                0.064748                           10   3
  134          fft3d_mpi                             0.049896                         30   4
  135            fftbas_plan_mpi                       0.046785                       30   5
  136              dfftw_execute                         0.006491                     90   6
  137              map_forward                           0.020794                     40   6
  138                map_gather                            0.000743                   20   7
  139                m_alltoallv_z                         0.017785                   20   7
  140                map_scatter                           0.001135                   20   7
  141              map_backward                          0.010578                     20   6
  142                map_gather                            0.000351                   10   7
  143                m_alltoallv_z                         0.009018                   10   7
  144                map_scatter                           0.000644                   10   7
  145        brmix                                 0.049633                           10   3
  146          brpre                                 0.000854                         10   4
  147          setg0                                 0.009142                         10   4
  148          broyd                                 0.033221                         10   4
  149            brsav                                 0.001441                      166   5
  150            brget                                 0.005325                      655   5
 
 Flat profile
 ============
 
             routine name                   CPU           calls
 ---------------------------------------------------------------
 total_time                             28.433874           1
 eddav                                   5.197270         127
 set_charge                              4.655111         123
 m_alltoallv_z                           2.080409        2383
 redis_pw                                0.985482        1437
 set_dd_paw                              0.952755         143
 fft3d                                   0.884311         983
 fftbas_plan_mpi                         0.631183        2127
 dfftw_execute                           0.509123        6381
 fft3d_mpi                               0.495672        2557
 spher                                   0.486214         191
 redis_proj                              0.484373        1750
 soft_charge                             0.458730         123
 orth1                                   0.456951        1173
 broyd                                   0.193339         123
 gemm                                    0.164223        1290
 force_and_stress                        0.163594          10
 fftext_mpi                              0.156053         430
 map_scatter                             0.146637        2383
 proj1                                   0.129718         403
 setg0                                   0.114069         133
 fftwav                                  0.105454         553
 vhamil                                  0.095333         430
 setdij_                                 0.093096         394
 map_gather                              0.092525        2383
 brmix                                   0.089759         123
 ggaall_grid                             0.083443         143
 map_backward                            0.070695        2228
 work_mul_crexp                          0.069486        1290
 map_forward                             0.065683        2026
 hamiltmu                                0.063495         430
 depsum                                  0.057062         123
 w1_copy                                 0.051023        1290
 vnlac0                                  0.049538         430
 brget                                   0.038160        4847
 kinhamil                                0.028054         430
 eccp                                    0.023936         127
 fornl                                   0.022693          10
 overl                                   0.018415         743
 pw_charge                               0.016142         123
 apply_precond                           0.015560         303
 chggra                                  0.014853          10
 strenl                                  0.014733          10
 phase                                   0.014017         247
 overl1                                  0.013962         430
 strelo                                  0.012556          10
 forhar                                  0.012296          20
 brsav                                   0.011599        1394
 fftwav_mpi                              0.011288         553
 brpre                                   0.010407         123
 orthch                                  0.010058          10
 strehar                                 0.009142          10
 setup_precond                           0.007496         127
 w1_projall                              0.007319         303
 forloc                                  0.007190          10
 truncate_high_frequency_w1              0.003334         557
 lincom                                  0.002545          10
 strkin                                  0.001903          10
 choleski                                0.001789          10
 fordep                                  0.001518          10
 set_rsgf_all                            0.000976         143
 brgrid                                  0.000693           1
 proj                                    0.000269          10
 redis_pw_over_bands                     0.000058          10
 ---------------------------------------------------------------
  summed up times    49.0986440181732     
 
 Accumulative profile
 ====================
 
             routine name                   CPU           calls
 ---------------------------------------------------------------
 total_time                             49.098644           1
 eddav                                   8.842810         127
 set_charge                              5.926145         123
 fft3d_mpi                               4.471946        2557
 fftbas_plan_mpi                         3.596254        2127
 m_alltoallv_z                           2.080409        2383
 force_and_stress                        1.676430          10
 map_backward                            1.261087        2228
 map_forward                             1.194861        2026
 hamiltmu                                1.030476         430
 soft_charge                             1.002363         123
 redis_pw                                0.985482        1437
 set_dd_paw                              0.953731         143
 fft3d                                   0.884311         983
 fftwav_mpi                              0.621033         553
 fftwav                                  0.609745         553
 kinhamil                                0.574438         430
 fftext_mpi                              0.546384         430
 strenl                                  0.523598          10
 dfftw_execute                           0.509123        6381
 spher                                   0.486214         191
 redis_proj                              0.484373        1750
 brmix                                   0.457334         123
 orth1                                   0.456951        1173
 vnlac0                                  0.283248         430
 broyd                                   0.243098         123
 gemm                                    0.164223        1290
 map_scatter                             0.146637        2383
 proj1                                   0.129718         403
 setg0                                   0.114069         133
 w1_projall                              0.105063         303
 vhamil                                  0.095333         430
 setdij_                                 0.093096         394
 map_gather                              0.092525        2383
 ggaall_grid                             0.083443         143
 work_mul_crexp                          0.069486        1290
 chggra                                  0.064748          10
 depsum                                  0.057062         123
 w1_copy                                 0.051023        1290
 orthch                                  0.043353          10
 brget                                   0.038160        4847
 eccp                                    0.023936         127
 fornl                                   0.022749          10
 overl                                   0.018415         743
 pw_charge                               0.016142         123
 apply_precond                           0.015560         303
 fordep                                  0.014827          10
 phase                                   0.014017         247
 overl1                                  0.013962         430
 strelo                                  0.012556          10
 forhar                                  0.012296          20
 brsav                                   0.011599        1394
 brpre                                   0.010407         123
 strehar                                 0.009142          10
 setup_precond                           0.007496         127
 forloc                                  0.007190          10
 proj                                    0.003763          10
 truncate_high_frequency_w1              0.003334         557
 lincom                                  0.002545          10
 strkin                                  0.001903          10
 choleski                                0.001789          10
 set_rsgf_all                            0.000976         143
 brgrid                                  0.000693           1
 redis_pw_over_bands                     0.000058          10
 ---------------------------------------------------------------
 
Profiling took   0.212423  0.249098  0.017119  0.016155 seconds
Profiling took   0.208208 seconds
